<?xml version="1.0"?>
<VTKFile type="UnstructuredGrid" version="0.1" byte_order="LittleEndian">
<!--This file was created by meshio v4.3.11-->
<UnstructuredGrid>
<Piece NumberOfPoints="80" NumberOfCells="79">
<Points>
<DataArray type="Float64" Name="Points" NumberOfComponents="3" format="ascii">
1.05000000000e-03
0.00000000000e+00
0.00000000000e+00
1.00000000000e-01
0.00000000000e+00
0.00000000000e+00
1.15251595585e-03
0.00000000000e+00
0.00000000000e+00
1.26023620791e-03
0.00000000000e+00
0.00000000000e+00
1.37342495730e-03
0.00000000000e+00
0.00000000000e+00
1.49235980691e-03
0.00000000000e+00
0.00000000000e+00
1.61733253539e-03
0.00000000000e+00
0.00000000000e+00
1.74864958462e-03
0.00000000000e+00
0.00000000000e+00
1.88663304881e-03
0.00000000000e+00
0.00000000000e+00
2.03162137147e-03
0.00000000000e+00
0.00000000000e+00
2.18397013587e-03
0.00000000000e+00
0.00000000000e+00
2.34405303039e-03
0.00000000000e+00
0.00000000000e+00
2.51226265924e-03
0.00000000000e+00
0.00000000000e+00
2.68901160239e-03
0.00000000000e+00
0.00000000000e+00
2.87473335397e-03
0.00000000000e+00
0.00000000000e+00
3.06988343837e-03
0.00000000000e+00
0.00000000000e+00
3.27494051620e-03
0.00000000000e+00
0.00000000000e+00
3.49040743192e-03
0.00000000000e+00
0.00000000000e+00
3.71681271041e-03
0.00000000000e+00
0.00000000000e+00
3.95471163806e-03
0.00000000000e+00
0.00000000000e+00
4.20468774361e-03
0.00000000000e+00
0.00000000000e+00
4.46735407330e-03
0.00000000000e+00
0.00000000000e+00
4.74335486563e-03
0.00000000000e+00
0.00000000000e+00
5.03336710310e-03
0.00000000000e+00
0.00000000000e+00
5.33810202761e-03
0.00000000000e+00
0.00000000000e+00
5.65830711331e-03
0.00000000000e+00
0.00000000000e+00
5.99476765223e-03
0.00000000000e+00
0.00000000000e+00
6.34830893542e-03
0.00000000000e+00
0.00000000000e+00
6.71979802700e-03
0.00000000000e+00
0.00000000000e+00
7.11014608044e-03
0.00000000000e+00
0.00000000000e+00
7.52031056087e-03
0.00000000000e+00
0.00000000000e+00
7.95129730566e-03
0.00000000000e+00
0.00000000000e+00
8.40416344086e-03
0.00000000000e+00
0.00000000000e+00
8.88001961987e-03
0.00000000000e+00
0.00000000000e+00
9.38003324222e-03
0.00000000000e+00
0.00000000000e+00
9.90543037755e-03
0.00000000000e+00
0.00000000000e+00
1.04574997383e-02
0.00000000000e+00
0.00000000000e+00
1.10375953849e-02
0.00000000000e+00
0.00000000000e+00
1.16471400618e-02
0.00000000000e+00
0.00000000000e+00
1.22876288147e-02
0.00000000000e+00
0.00000000000e+00
1.29606325019e-02
0.00000000000e+00
0.00000000000e+00
1.36678018208e-02
0.00000000000e+00
0.00000000000e+00
1.44108711766e-02
0.00000000000e+00
0.00000000000e+00
1.51916630393e-02
0.00000000000e+00
0.00000000000e+00
1.60120927331e-02
0.00000000000e+00
0.00000000000e+00
1.68741718597e-02
0.00000000000e+00
0.00000000000e+00
1.77800152913e-02
0.00000000000e+00
0.00000000000e+00
1.87318447195e-02
0.00000000000e+00
0.00000000000e+00
1.97319945225e-02
0.00000000000e+00
0.00000000000e+00
2.07829177568e-02
0.00000000000e+00
0.00000000000e+00
2.18871919438e-02
0.00000000000e+00
0.00000000000e+00
2.30475256597e-02
0.00000000000e+00
0.00000000000e+00
2.42667646106e-02
0.00000000000e+00
0.00000000000e+00
2.55478993524e-02
0.00000000000e+00
0.00000000000e+00
2.68940719132e-02
0.00000000000e+00
0.00000000000e+00
2.83085841474e-02
0.00000000000e+00
0.00000000000e+00
2.97949052505e-02
0.00000000000e+00
0.00000000000e+00
3.13566806340e-02
0.00000000000e+00
0.00000000000e+00
3.29977410113e-02
0.00000000000e+00
0.00000000000e+00
3.47221114282e-02
0.00000000000e+00
0.00000000000e+00
3.65340206367e-02
0.00000000000e+00
0.00000000000e+00
3.84379129761e-02
0.00000000000e+00
0.00000000000e+00
4.04384577332e-02
0.00000000000e+00
0.00000000000e+00
4.25405621150e-02
0.00000000000e+00
0.00000000000e+00
4.47493818412e-02
0.00000000000e+00
0.00000000000e+00
4.70703337997e-02
0.00000000000e+00
0.00000000000e+00
4.95091111895e-02
0.00000000000e+00
0.00000000000e+00
5.20716949894e-02
0.00000000000e+00
0.00000000000e+00
5.47643705765e-02
0.00000000000e+00
0.00000000000e+00
5.75937423421e-02
0.00000000000e+00
0.00000000000e+00
6.05667494419e-02
0.00000000000e+00
0.00000000000e+00
6.36906834689e-02
0.00000000000e+00
0.00000000000e+00
6.69732073528e-02
0.00000000000e+00
0.00000000000e+00
7.04223712858e-02
0.00000000000e+00
0.00000000000e+00
7.40466344191e-02
0.00000000000e+00
0.00000000000e+00
7.78548863662e-02
0.00000000000e+00
0.00000000000e+00
8.18564668927e-02
0.00000000000e+00
0.00000000000e+00
8.60611916073e-02
0.00000000000e+00
0.00000000000e+00
9.04793731482e-02
0.00000000000e+00
0.00000000000e+00
9.51218470555e-02
0.00000000000e+00
0.00000000000e+00

</DataArray>
</Points>
<Cells>
<DataArray type="Int64" Name="connectivity" format="ascii">
0
2
2
3
3
4
4
5
5
6
6
7
7
8
8
9
9
10
10
11
11
12
12
13
13
14
14
15
15
16
16
17
17
18
18
19
19
20
20
21
21
22
22
23
23
24
24
25
25
26
26
27
27
28
28
29
29
30
30
31
31
32
32
33
33
34
34
35
35
36
36
37
37
38
38
39
39
40
40
41
41
42
42
43
43
44
44
45
45
46
46
47
47
48
48
49
49
50
50
51
51
52
52
53
53
54
54
55
55
56
56
57
57
58
58
59
59
60
60
61
61
62
62
63
63
64
64
65
65
66
66
67
67
68
68
69
69
70
70
71
71
72
72
73
73
74
74
75
75
76
76
77
77
78
78
79
79
1

</DataArray>
<DataArray type="Int64" Name="offsets" format="ascii">
2
4
6
8
10
12
14
16
18
20
22
24
26
28
30
32
34
36
38
40
42
44
46
48
50
52
54
56
58
60
62
64
66
68
70
72
74
76
78
80
82
84
86
88
90
92
94
96
98
100
102
104
106
108
110
112
114
116
118
120
122
124
126
128
130
132
134
136
138
140
142
144
146
148
150
152
154
156
158

</DataArray>
<DataArray type="Int64" Name="types" format="ascii">
3
3
3
3
3
3
3
3
3
3
3
3
3
3
3
3
3
3
3
3
3
3
3
3
3
3
3
3
3
3
3
3
3
3
3
3
3
3
3
3
3
3
3
3
3
3
3
3
3
3
3
3
3
3
3
3
3
3
3
3
3
3
3
3
3
3
3
3
3
3
3
3
3
3
3
3
3
3
3

</DataArray>
</Cells>
<PointData>
<DataArray type="UInt64" Name="bulk_node_ids" format="ascii">
0
1
15
16
17
18
19
20
21
22
23
24
25
26
27
28
29
30
31
32
33
34
35
36
37
38
39
40
41
42
43
44
45
46
47
48
49
50
51
52
53
54
55
56
57
58
59
60
61
62
63
64
65
66
67
68
69
70
71
72
73
74
75
76
77
78
79
80
81
82
83
84
85
86
87
88
89
90
91
92

</DataArray>
</PointData>
<CellData>
<DataArray type="UInt64" Name="bulk_elem_ids" format="ascii">
2850
1670
1731
2217
1794
3786
4099
1872
447
1936
2296
2023
381
1736
2014
2318
2034
3111
2020
2315
1999
2019
2890
2221
2028
3334
2000
2018
2309
3826
2026
2308
3762
2029
2306
3925
2024
3038
4036
2010
2307
1989
2008
231
1987
2007
2641
1978
2005
2316
2001
2313
1998
2312
1995
2293
1965
1993
2260
1923
2212
1866
1838
2500
1808
2176
1774
2137
1764
2125
1752
2123
1754
1711
1889
1692
2068
1677
3158

</DataArray>
</CellData>
</Piece>
</UnstructuredGrid>
</VTKFile>
