<?xml version="1.0"?>
<VTKFile type="UnstructuredGrid" version="0.1" byte_order="LittleEndian">
<!--This file was created by meshio v4.3.11-->
<UnstructuredGrid>
<Piece NumberOfPoints="80" NumberOfCells="79">
<Points>
<DataArray type="Float64" Name="Points" NumberOfComponents="3" format="ascii">
0.00000000000e+00
1.00000000000e-01
0.00000000000e+00
0.00000000000e+00
1.05000000000e-03
0.00000000000e+00
0.00000000000e+00
9.51218470555e-02
0.00000000000e+00
0.00000000000e+00
9.04793731483e-02
0.00000000000e+00
0.00000000000e+00
8.60611916074e-02
0.00000000000e+00
0.00000000000e+00
8.18564668928e-02
0.00000000000e+00
0.00000000000e+00
7.78548863663e-02
0.00000000000e+00
0.00000000000e+00
7.40466344192e-02
0.00000000000e+00
0.00000000000e+00
7.04223712860e-02
0.00000000000e+00
0.00000000000e+00
6.69732073530e-02
0.00000000000e+00
0.00000000000e+00
6.36906834692e-02
0.00000000000e+00
0.00000000000e+00
6.05667494422e-02
0.00000000000e+00
0.00000000000e+00
5.75937423423e-02
0.00000000000e+00
0.00000000000e+00
5.47643705768e-02
0.00000000000e+00
0.00000000000e+00
5.20716949897e-02
0.00000000000e+00
0.00000000000e+00
4.95091111898e-02
0.00000000000e+00
0.00000000000e+00
4.70703338000e-02
0.00000000000e+00
0.00000000000e+00
4.47493818415e-02
0.00000000000e+00
0.00000000000e+00
4.25405621153e-02
0.00000000000e+00
0.00000000000e+00
4.04384577335e-02
0.00000000000e+00
0.00000000000e+00
3.84379129763e-02
0.00000000000e+00
0.00000000000e+00
3.65340206369e-02
0.00000000000e+00
0.00000000000e+00
3.47221114284e-02
0.00000000000e+00
0.00000000000e+00
3.29977410115e-02
0.00000000000e+00
0.00000000000e+00
3.13566806342e-02
0.00000000000e+00
0.00000000000e+00
2.97949052507e-02
0.00000000000e+00
0.00000000000e+00
2.83085841475e-02
0.00000000000e+00
0.00000000000e+00
2.68940719134e-02
0.00000000000e+00
0.00000000000e+00
2.55478993525e-02
0.00000000000e+00
0.00000000000e+00
2.42667646107e-02
0.00000000000e+00
0.00000000000e+00
2.30475256597e-02
0.00000000000e+00
0.00000000000e+00
2.18871919439e-02
0.00000000000e+00
0.00000000000e+00
2.07829177569e-02
0.00000000000e+00
0.00000000000e+00
1.97319945226e-02
0.00000000000e+00
0.00000000000e+00
1.87318447196e-02
0.00000000000e+00
0.00000000000e+00
1.77800152914e-02
0.00000000000e+00
0.00000000000e+00
1.68741718597e-02
0.00000000000e+00
0.00000000000e+00
1.60120927332e-02
0.00000000000e+00
0.00000000000e+00
1.51916630393e-02
0.00000000000e+00
0.00000000000e+00
1.44108711766e-02
0.00000000000e+00
0.00000000000e+00
1.36678018209e-02
0.00000000000e+00
0.00000000000e+00
1.29606325020e-02
0.00000000000e+00
0.00000000000e+00
1.22876288148e-02
0.00000000000e+00
0.00000000000e+00
1.16471400618e-02
0.00000000000e+00
0.00000000000e+00
1.10375953849e-02
0.00000000000e+00
0.00000000000e+00
1.04574997383e-02
0.00000000000e+00
0.00000000000e+00
9.90543037757e-03
0.00000000000e+00
0.00000000000e+00
9.38003324224e-03
0.00000000000e+00
0.00000000000e+00
8.88001961989e-03
0.00000000000e+00
0.00000000000e+00
8.40416344088e-03
0.00000000000e+00
0.00000000000e+00
7.95129730568e-03
0.00000000000e+00
0.00000000000e+00
7.52031056088e-03
0.00000000000e+00
0.00000000000e+00
7.11014608046e-03
0.00000000000e+00
0.00000000000e+00
6.71979802702e-03
0.00000000000e+00
0.00000000000e+00
6.34830893544e-03
0.00000000000e+00
0.00000000000e+00
5.99476765224e-03
0.00000000000e+00
0.00000000000e+00
5.65830711332e-03
0.00000000000e+00
0.00000000000e+00
5.33810202762e-03
0.00000000000e+00
0.00000000000e+00
5.03336710311e-03
0.00000000000e+00
0.00000000000e+00
4.74335486564e-03
0.00000000000e+00
0.00000000000e+00
4.46735407330e-03
0.00000000000e+00
0.00000000000e+00
4.20468774362e-03
0.00000000000e+00
0.00000000000e+00
3.95471163807e-03
0.00000000000e+00
0.00000000000e+00
3.71681271041e-03
0.00000000000e+00
0.00000000000e+00
3.49040743192e-03
0.00000000000e+00
0.00000000000e+00
3.27494051620e-03
0.00000000000e+00
0.00000000000e+00
3.06988343837e-03
0.00000000000e+00
0.00000000000e+00
2.87473335398e-03
0.00000000000e+00
0.00000000000e+00
2.68901160240e-03
0.00000000000e+00
0.00000000000e+00
2.51226265924e-03
0.00000000000e+00
0.00000000000e+00
2.34405303039e-03
0.00000000000e+00
0.00000000000e+00
2.18397013587e-03
0.00000000000e+00
0.00000000000e+00
2.03162137147e-03
0.00000000000e+00
0.00000000000e+00
1.88663304881e-03
0.00000000000e+00
0.00000000000e+00
1.74864958462e-03
0.00000000000e+00
0.00000000000e+00
1.61733253539e-03
0.00000000000e+00
0.00000000000e+00
1.49235980691e-03
0.00000000000e+00
0.00000000000e+00
1.37342495730e-03
0.00000000000e+00
0.00000000000e+00
1.26023620791e-03
0.00000000000e+00
0.00000000000e+00
1.15251595585e-03
0.00000000000e+00

</DataArray>
</Points>
<Cells>
<DataArray type="Int64" Name="connectivity" format="ascii">
0
2
2
3
3
4
4
5
5
6
6
7
7
8
8
9
9
10
10
11
11
12
12
13
13
14
14
15
15
16
16
17
17
18
18
19
19
20
20
21
21
22
22
23
23
24
24
25
25
26
26
27
27
28
28
29
29
30
30
31
31
32
32
33
33
34
34
35
35
36
36
37
37
38
38
39
39
40
40
41
41
42
42
43
43
44
44
45
45
46
46
47
47
48
48
49
49
50
50
51
51
52
52
53
53
54
54
55
55
56
56
57
57
58
58
59
59
60
60
61
61
62
62
63
63
64
64
65
65
66
66
67
67
68
68
69
69
70
70
71
71
72
72
73
73
74
74
75
75
76
76
77
77
78
78
79
79
1

</DataArray>
<DataArray type="Int64" Name="offsets" format="ascii">
2
4
6
8
10
12
14
16
18
20
22
24
26
28
30
32
34
36
38
40
42
44
46
48
50
52
54
56
58
60
62
64
66
68
70
72
74
76
78
80
82
84
86
88
90
92
94
96
98
100
102
104
106
108
110
112
114
116
118
120
122
124
126
128
130
132
134
136
138
140
142
144
146
148
150
152
154
156
158

</DataArray>
<DataArray type="Int64" Name="types" format="ascii">
3
3
3
3
3
3
3
3
3
3
3
3
3
3
3
3
3
3
3
3
3
3
3
3
3
3
3
3
3
3
3
3
3
3
3
3
3
3
3
3
3
3
3
3
3
3
3
3
3
3
3
3
3
3
3
3
3
3
3
3
3
3
3
3
3
3
3
3
3
3
3
3
3
3
3
3
3
3
3

</DataArray>
</Cells>
<PointData>
<DataArray type="UInt64" Name="bulk_node_ids" format="ascii">
2
3
124
125
126
127
128
129
130
131
132
133
134
135
136
137
138
139
140
141
142
143
144
145
146
147
148
149
150
151
152
153
154
155
156
157
158
159
160
161
162
163
164
165
166
167
168
169
170
171
172
173
174
175
176
177
178
179
180
181
182
183
184
185
186
187
188
189
190
191
192
193
194
195
196
197
198
199
200
201

</DataArray>
</PointData>
<CellData>
<DataArray type="UInt64" Name="bulk_elem_ids" format="ascii">
3157
1675
1802
1691
1032
1092
1709
1746
4091
1735
1854
1757
1865
1773
3885
1947
1880
2216
1945
1170
2060
1961
2794
3322
1992
1208
2095
1994
3418
2097
2004
2088
2099
2006
1980
2104
2009
1226
2105
2011
3575
2012
4032
2015
2117
2032
1996
4088
2027
2119
2013
2118
2021
2311
2030
2114
2033
2116
2031
2113
2016
2121
2025
1228
4120
2017
2120
2022
2071
1935
289
1871
4074
3553
1793
1864
1730
1669
2851

</DataArray>
</CellData>
</Piece>
</UnstructuredGrid>
</VTKFile>
