<?xml version="1.0"?>
<VTKFile type="UnstructuredGrid" version="0.1" byte_order="LittleEndian">
<!--This file was created by meshio v4.3.11-->
<UnstructuredGrid>
<Piece NumberOfPoints="12" NumberOfCells="11">
<Points>
<DataArray type="Float64" Name="Points" NumberOfComponents="3" format="ascii">
0.00000000000e+00
1.05000000000e-03
0.00000000000e+00
0.00000000000e+00
0.00000000000e+00
0.00000000000e+00
0.00000000000e+00
9.54545454546e-04
0.00000000000e+00
0.00000000000e+00
8.59090909091e-04
0.00000000000e+00
0.00000000000e+00
7.63636363637e-04
0.00000000000e+00
0.00000000000e+00
6.68181818183e-04
0.00000000000e+00
0.00000000000e+00
5.72727272729e-04
0.00000000000e+00
0.00000000000e+00
4.77272727274e-04
0.00000000000e+00
0.00000000000e+00
3.81818181819e-04
0.00000000000e+00
0.00000000000e+00
2.86363636364e-04
0.00000000000e+00
0.00000000000e+00
1.90909090910e-04
0.00000000000e+00
0.00000000000e+00
9.54545454549e-05
0.00000000000e+00

</DataArray>
</Points>
<Cells>
<DataArray type="Int64" Name="connectivity" format="ascii">
0
2
2
3
3
4
4
5
5
6
6
7
7
8
8
9
9
10
10
11
11
1

</DataArray>
<DataArray type="Int64" Name="offsets" format="ascii">
2
4
6
8
10
12
14
16
18
20
22

</DataArray>
<DataArray type="Int64" Name="types" format="ascii">
3
3
3
3
3
3
3
3
3
3
3

</DataArray>
</Cells>
<PointData>
<DataArray type="UInt64" Name="bulk_node_ids" format="ascii">
3
4
202
203
204
205
206
207
208
209
210
211

</DataArray>
</PointData>
<CellData>
<DataArray type="UInt64" Name="bulk_elem_ids" format="ascii">
182
122
112
98
142
134
80
75
70
69
176

</DataArray>
</CellData>
</Piece>
</UnstructuredGrid>
</VTKFile>
