<?xml version="1.0"?>
<VTKFile type="UnstructuredGrid" version="0.1" byte_order="LittleEndian">
<!--This file was created by meshio v4.3.11-->
<UnstructuredGrid>
<Piece NumberOfPoints="136" NumberOfCells="231">
<Points>
<DataArray type="Float64" Name="Points" NumberOfComponents="3" format="ascii">
1.05000000000e-03
0.00000000000e+00
0.00000000000e+00
0.00000000000e+00
1.05000000000e-03
0.00000000000e+00
0.00000000000e+00
0.00000000000e+00
0.00000000000e+00
9.54545454544e-05
0.00000000000e+00
0.00000000000e+00
1.90909090909e-04
0.00000000000e+00
0.00000000000e+00
2.86363636363e-04
0.00000000000e+00
0.00000000000e+00
3.81818181817e-04
0.00000000000e+00
0.00000000000e+00
4.77272727271e-04
0.00000000000e+00
0.00000000000e+00
5.72727272726e-04
0.00000000000e+00
0.00000000000e+00
6.68181818181e-04
0.00000000000e+00
0.00000000000e+00
7.63636363636e-04
0.00000000000e+00
0.00000000000e+00
8.59090909090e-04
0.00000000000e+00
0.00000000000e+00
9.54545454545e-04
0.00000000000e+00
0.00000000000e+00
0.00000000000e+00
9.54545454546e-04
0.00000000000e+00
0.00000000000e+00
8.59090909091e-04
0.00000000000e+00
0.00000000000e+00
7.63636363637e-04
0.00000000000e+00
0.00000000000e+00
6.68181818183e-04
0.00000000000e+00
0.00000000000e+00
5.72727272729e-04
0.00000000000e+00
0.00000000000e+00
4.77272727274e-04
0.00000000000e+00
0.00000000000e+00
3.81818181819e-04
0.00000000000e+00
0.00000000000e+00
2.86363636364e-04
0.00000000000e+00
0.00000000000e+00
1.90909090910e-04
0.00000000000e+00
0.00000000000e+00
9.54545454549e-05
0.00000000000e+00
1.04552088509e-03
9.68817776626e-05
0.00000000000e+00
1.03212175458e-03
1.92936994192e-04
0.00000000000e+00
1.00991692512e-03
2.87346140323e-04
0.00000000000e+00
9.79095840502e-04
3.79303750457e-04
0.00000000000e+00
9.39921455326e-04
4.68025274765e-04
0.00000000000e+00
8.92727991639e-04
5.52753772438e-04
0.00000000000e+00
8.37918087437e-04
6.32766369796e-04
0.00000000000e+00
7.75959361491e-04
7.07380427574e-04
0.00000000000e+00
7.07380424094e-04
7.75959364663e-04
0.00000000000e+00
6.32766366618e-04
8.37918089837e-04
0.00000000000e+00
5.52753769523e-04
8.92727993444e-04
0.00000000000e+00
4.68025272180e-04
9.39921456613e-04
0.00000000000e+00
3.79303748341e-04
9.79095841322e-04
0.00000000000e+00
2.87346138647e-04
1.00991692560e-03
0.00000000000e+00
1.92936993124e-04
1.03212175478e-03
0.00000000000e+00
9.68817771331e-05
1.04552088514e-03
0.00000000000e+00
8.24509617355e-05
4.29588624095e-04
0.00000000000e+00
7.49386381619e-04
6.11016756232e-04
0.00000000000e+00
4.36495018247e-04
8.56976417991e-05
0.00000000000e+00
5.61393343097e-04
8.02826946243e-04
0.00000000000e+00
8.84611380376e-04
3.83756644408e-04
0.00000000000e+00
8.19357988250e-05
7.15985932163e-04
0.00000000000e+00
6.20454545453e-04
8.26660612704e-05
0.00000000000e+00
8.26667699615e-05
2.38636999868e-04
0.00000000000e+00
3.08665035835e-04
9.23103673302e-04
0.00000000000e+00
8.11387014831e-04
8.65892578206e-05
0.00000000000e+00
2.30369825529e-04
8.55549888724e-05
0.00000000000e+00
9.19053108839e-04
2.13961025711e-04
0.00000000000e+00
7.60420092436e-05
9.04785358009e-04
0.00000000000e+00
9.57016548222e-04
1.25355033923e-04
0.00000000000e+00
8.08286250860e-05
1.43586332985e-04
0.00000000000e+00
1.73249852199e-04
1.76078349319e-04
0.00000000000e+00
1.66643797176e-04
2.83871800866e-04
0.00000000000e+00
2.48028000962e-04
2.38641231191e-04
0.00000000000e+00
2.48106275703e-04
3.33814525464e-04
0.00000000000e+00
3.30854147154e-04
2.86333341714e-04
0.00000000000e+00
3.30709122768e-04
3.82102523020e-04
0.00000000000e+00
4.13745482259e-04
3.34198660416e-04
0.00000000000e+00
4.13759636389e-04
4.30049601748e-04
0.00000000000e+00
4.96935439772e-04
3.82044455354e-04
0.00000000000e+00
3.30210476042e-04
4.78237998943e-04
0.00000000000e+00
4.96898852349e-04
4.78137638714e-04
0.00000000000e+00
5.80145963465e-04
4.30089131407e-04
0.00000000000e+00
5.80152195737e-04
3.33926125902e-04
0.00000000000e+00
6.63391207689e-04
3.81964083174e-04
0.00000000000e+00
6.63360427617e-04
2.85779403459e-04
0.00000000000e+00
5.79471163751e-04
5.26326897255e-04
0.00000000000e+00
4.96653504094e-04
5.74406205410e-04
0.00000000000e+00
5.79789560077e-04
6.21599584559e-04
0.00000000000e+00
5.78843794974e-04
2.39691404532e-04
0.00000000000e+00
4.12208866037e-04
2.41004344544e-04
0.00000000000e+00
7.42763834203e-04
3.33843129060e-04
0.00000000000e+00
7.41744462725e-04
4.29585917278e-04
0.00000000000e+00
7.47360974378e-04
2.39974903637e-04
0.00000000000e+00
4.95156696755e-04
6.66395791534e-04
0.00000000000e+00
4.12947381986e-04
6.21800446689e-04
0.00000000000e+00
4.10844110012e-04
7.14755048094e-04
0.00000000000e+00
3.29218714665e-04
6.69875348708e-04
0.00000000000e+00
3.29672512266e-04
7.62799923595e-04
0.00000000000e+00
2.46158634575e-04
7.18691787418e-04
0.00000000000e+00
2.46468527751e-04
6.22111416238e-04
0.00000000000e+00
4.04338141192e-04
8.04043380210e-04
0.00000000000e+00
8.36127334780e-04
2.93167010370e-04
0.00000000000e+00
2.46976616529e-04
8.05103453051e-04
0.00000000000e+00
8.24991667485e-04
1.87072263969e-04
0.00000000000e+00
3.29751827835e-04
5.74204016219e-04
0.00000000000e+00
2.46406340538e-04
5.26500160390e-04
0.00000000000e+00
1.63745814683e-04
5.73908360566e-04
0.00000000000e+00
2.47270173831e-04
4.30203892631e-04
0.00000000000e+00
6.64772579466e-04
1.77015859848e-04
0.00000000000e+00
4.96385953667e-04
2.86820117519e-04
0.00000000000e+00
4.89431321962e-04
1.78219469926e-04
0.00000000000e+00
3.31199186151e-04
1.94539039515e-04
0.00000000000e+00
8.28298779326e-05
3.33653366854e-04
0.00000000000e+00
3.32608434538e-04
9.77687040795e-05
0.00000000000e+00
5.27274780760e-04
8.30762411872e-05
0.00000000000e+00
8.08259667446e-05
8.11037639271e-04
0.00000000000e+00
7.13864045295e-04
8.36242762966e-05
0.00000000000e+00
4.13627988961e-04
5.25985852543e-04
0.00000000000e+00
6.61532712555e-04
4.77623916885e-04
0.00000000000e+00
1.65327212642e-04
3.81473529697e-04
0.00000000000e+00
8.20034447136e-05
5.25276749732e-04
0.00000000000e+00
1.64662189475e-04
4.77708968274e-04
0.00000000000e+00
8.15765134164e-05
6.20624250076e-04
0.00000000000e+00
1.63918164124e-04
6.69159685016e-04
0.00000000000e+00
1.63861579617e-04
7.63178234335e-04
0.00000000000e+00
1.68297125674e-04
8.68707131208e-04
0.00000000000e+00
7.42747770426e-04
5.21539895489e-04
0.00000000000e+00
8.31854167459e-04
4.70820938642e-04
0.00000000000e+00
6.61770593478e-04
5.72250596081e-04
0.00000000000e+00
6.70407793083e-04
6.80950065189e-04
0.00000000000e+00
1.42328579060e-04
7.94059209564e-05
0.00000000000e+00
5.71158608479e-04
7.14022984079e-04
0.00000000000e+00
9.22741259455e-04
3.09271700252e-04
0.00000000000e+00
2.22812578057e-04
9.47341001105e-04
0.00000000000e+00
5.72727272726e-04
1.52858705929e-04
0.00000000000e+00
3.95414041328e-04
8.91635598636e-04
0.00000000000e+00
1.40025871538e-04
9.65027552188e-04
0.00000000000e+00
7.53125740266e-04
1.55032217036e-04
0.00000000000e+00
4.00388565387e-04
1.59445839973e-04
0.00000000000e+00
2.59069936763e-04
1.59459408298e-04
0.00000000000e+00
4.78739281232e-04
8.55338280195e-04
0.00000000000e+00
8.13403288280e-04
5.58025741741e-04
0.00000000000e+00
4.85992067314e-04
7.53618593352e-04
0.00000000000e+00
8.06402864401e-04
3.81918157394e-04
0.00000000000e+00
3.21871701021e-04
8.44980776004e-04
0.00000000000e+00
6.98775770863e-05
6.98775770864e-05
0.00000000000e+00
8.79905211150e-04
1.34985474483e-04
0.00000000000e+00
6.56484598202e-05
9.81203499051e-04
0.00000000000e+00
6.31842503137e-04
7.63611062091e-04
0.00000000000e+00
9.02369865485e-04
6.60040437778e-05
0.00000000000e+00
9.88975212941e-04
5.88247031251e-05
0.00000000000e+00
2.50021385734e-04
8.80468310752e-04
0.00000000000e+00

</DataArray>
</Points>
<Cells>
<DataArray type="Int64" Name="connectivity" format="ascii">
49
54
114
24
50
52
54
49
123
50
85
87
94
41
98
23
24
52
92
45
100
30
31
113
41
94
122
85
50
116
52
50
130
50
87
130
40
30
113
92
100
121
43
27
111
43
85
116
45
92
118
54
53
114
27
28
111
85
43
127
97
95
123
109
117
120
124
84
126
95
97
122
113
31
132
42
124
126
94
98
118
51
109
120
49
97
123
63
89
91
63
88
89
48
87
121
78
88
101
88
63
101
59
63
91
57
59
91
89
90
105
62
60
93
68
72
92
60
73
93
72
93
94
24
25
50
80
82
83
76
68
92
70
78
101
78
80
88
68
66
72
89
83
90
35
36
47
80
81
82
88
83
89
26
27
43
78
79
80
93
73
94
66
62
93
29
30
40
32
33
42
80
83
88
70
77
78
74
68
76
85
76
87
82
81
86
67
66
68
72
66
93
58
56
95
80
79
81
73
58
95
78
77
79
65
62
66
21
22
53
20
21
46
4
5
49
46
21
53
60
58
73
46
53
54
19
20
96
5
6
97
46
54
55
20
46
96
49
5
97
18
19
39
6
7
41
46
55
96
55
54
56
39
19
96
6
41
97
57
91
103
7
8
98
74
76
85
59
61
63
90
104
105
67
68
74
65
66
67
41
7
98
39
103
105
55
56
57
8
9
45
102
110
112
15
16
44
64
69
70
70
71
77
57
56
58
9
10
100
10
11
48
59
58
60
57
58
59
61
60
62
8
45
98
64
62
65
70
69
71
81
79
84
63
61
101
14
15
99
59
60
61
64
65
69
61
62
64
67
74
75
64
70
101
45
9
100
39
96
103
10
48
100
65
67
102
13
14
51
55
57
103
69
65
102
61
64
101
15
44
99
96
55
103
103
91
105
67
75
102
18
39
104
91
89
105
51
14
99
82
86
108
17
18
104
104
39
105
83
82
107
44
106
107
44
16
106
108
86
109
17
104
106
104
90
106
16
17
106
107
82
108
106
90
107
97
41
122
90
83
107
69
102
112
110
40
112
99
44
108
44
107
108
3
4
114
99
108
109
51
99
109
87
48
130
23
52
134
110
75
111
77
71
115
43
111
127
71
112
113
112
40
113
77
115
126
92
72
118
102
75
110
71
69
112
4
49
114
76
92
121
115
42
126
94
73
122
56
54
123
117
109
135
71
113
115
50
25
116
47
36
117
26
43
116
84
79
126
22
2
129
2
3
129
36
37
117
25
26
116
74
85
127
38
1
131
1
13
131
111
75
127
100
48
121
133
12
134
34
35
119
37
38
120
42
33
124
34
119
124
72
94
118
29
40
125
98
45
118
32
42
132
52
133
134
115
113
132
86
81
128
35
47
119
40
110
125
87
76
121
119
84
124
11
12
133
42
115
132
73
95
122
81
84
128
86
128
135
95
56
123
111
28
125
33
34
124
0
23
134
110
111
125
28
29
125
3
114
129
12
0
134
117
37
120
79
77
126
75
74
127
53
22
129
109
86
135
48
11
133
31
32
132
13
51
131
128
47
135
114
53
129
84
119
128
120
38
131
119
47
128
47
117
135
51
120
131
130
48
133
52
130
133

</DataArray>
<DataArray type="Int64" Name="offsets" format="ascii">
3
6
9
12
15
18
21
24
27
30
33
36
39
42
45
48
51
54
57
60
63
66
69
72
75
78
81
84
87
90
93
96
99
102
105
108
111
114
117
120
123
126
129
132
135
138
141
144
147
150
153
156
159
162
165
168
171
174
177
180
183
186
189
192
195
198
201
204
207
210
213
216
219
222
225
228
231
234
237
240
243
246
249
252
255
258
261
264
267
270
273
276
279
282
285
288
291
294
297
300
303
306
309
312
315
318
321
324
327
330
333
336
339
342
345
348
351
354
357
360
363
366
369
372
375
378
381
384
387
390
393
396
399
402
405
408
411
414
417
420
423
426
429
432
435
438
441
444
447
450
453
456
459
462
465
468
471
474
477
480
483
486
489
492
495
498
501
504
507
510
513
516
519
522
525
528
531
534
537
540
543
546
549
552
555
558
561
564
567
570
573
576
579
582
585
588
591
594
597
600
603
606
609
612
615
618
621
624
627
630
633
636
639
642
645
648
651
654
657
660
663
666
669
672
675
678
681
684
687
690
693

</DataArray>
<DataArray type="Int64" Name="types" format="ascii">
5
5
5
5
5
5
5
5
5
5
5
5
5
5
5
5
5
5
5
5
5
5
5
5
5
5
5
5
5
5
5
5
5
5
5
5
5
5
5
5
5
5
5
5
5
5
5
5
5
5
5
5
5
5
5
5
5
5
5
5
5
5
5
5
5
5
5
5
5
5
5
5
5
5
5
5
5
5
5
5
5
5
5
5
5
5
5
5
5
5
5
5
5
5
5
5
5
5
5
5
5
5
5
5
5
5
5
5
5
5
5
5
5
5
5
5
5
5
5
5
5
5
5
5
5
5
5
5
5
5
5
5
5
5
5
5
5
5
5
5
5
5
5
5
5
5
5
5
5
5
5
5
5
5
5
5
5
5
5
5
5
5
5
5
5
5
5
5
5
5
5
5
5
5
5
5
5
5
5
5
5
5
5
5
5
5
5
5
5
5
5
5
5
5
5
5
5
5
5
5
5
5
5
5
5
5
5
5
5
5
5
5
5
5
5
5
5
5
5
5
5
5
5
5
5
5
5
5
5
5
5

</DataArray>
</Cells>
<PointData>
<DataArray type="UInt64" Name="bulk_node_ids" format="ascii">
0
3
4
5
6
7
8
9
10
11
12
13
14
202
203
204
205
206
207
208
209
210
211
212
213
214
215
216
217
218
219
220
221
222
223
224
225
226
227
228
229
230
231
232
233
234
235
236
237
238
239
240
241
242
243
244
245
246
247
248
249
250
251
252
253
254
255
256
257
258
259
260
261
262
263
264
265
266
267
268
269
270
271
272
273
274
275
276
277
278
279
280
281
282
283
284
285
286
287
288
289
290
291
292
293
294
295
296
297
298
299
300
301
302
303
304
305
306
307
308
309
310
311
312
313
314
315
316
317
318
319
320
321
322
323
324

</DataArray>
</PointData>
<CellData>
<DataArray type="Int32" Name="MaterialIDs" format="ascii">
0
0
0
0
0
0
0
0
0
0
0
0
0
0
0
0
0
0
0
0
0
0
0
0
0
0
0
0
0
0
0
0
0
0
0
0
0
0
0
0
0
0
0
0
0
0
0
0
0
0
0
0
0
0
0
0
0
0
0
0
0
0
0
0
0
0
0
0
0
0
0
0
0
0
0
0
0
0
0
0
0
0
0
0
0
0
0
0
0
0
0
0
0
0
0
0
0
0
0
0
0
0
0
0
0
0
0
0
0
0
0
0
0
0
0
0
0
0
0
0
0
0
0
0
0
0
0
0
0
0
0
0
0
0
0
0
0
0
0
0
0
0
0
0
0
0
0
0
0
0
0
0
0
0
0
0
0
0
0
0
0
0
0
0
0
0
0
0
0
0
0
0
0
0
0
0
0
0
0
0
0
0
0
0
0
0
0
0
0
0
0
0
0
0
0
0
0
0
0
0
0
0
0
0
0
0
0
0
0
0
0
0
0
0
0
0
0
0
0
0
0
0
0
0
0
0
0
0
0
0
0

</DataArray>
</CellData>
</Piece>
</UnstructuredGrid>
</VTKFile>
