<?xml version="1.0"?>
<VTKFile type="UnstructuredGrid" version="0.1" byte_order="LittleEndian">
<!--This file was created by meshio v4.3.11-->
<UnstructuredGrid>
<Piece NumberOfPoints="19" NumberOfCells="18">
<Points>
<DataArray type="Float64" Name="Points" NumberOfComponents="3" format="ascii">
0.00000000000e+00
0.00000000000e+00
0.00000000000e+00
1.05000000000e-03
0.00000000000e+00
0.00000000000e+00
2.56843684968e-04
0.00000000000e+00
0.00000000000e+00
4.51278904630e-04
0.00000000000e+00
0.00000000000e+00
5.98469809931e-04
0.00000000000e+00
0.00000000000e+00
7.09895946272e-04
0.00000000000e+00
0.00000000000e+00
7.94247496419e-04
0.00000000000e+00
0.00000000000e+00
8.58103115122e-04
0.00000000000e+00
0.00000000000e+00
9.06442954701e-04
0.00000000000e+00
0.00000000000e+00
9.43037065048e-04
0.00000000000e+00
0.00000000000e+00
9.70739453741e-04
0.00000000000e+00
0.00000000000e+00
9.91710654613e-04
0.00000000000e+00
0.00000000000e+00
1.00758622216e-03
0.00000000000e+00
0.00000000000e+00
1.01960431172e-03
0.00000000000e+00
0.00000000000e+00
1.02870221624e-03
0.00000000000e+00
0.00000000000e+00
1.03558949228e-03
0.00000000000e+00
0.00000000000e+00
1.04080328180e-03
0.00000000000e+00
0.00000000000e+00
1.04475021213e-03
0.00000000000e+00
0.00000000000e+00
1.04773810917e-03
0.00000000000e+00
0.00000000000e+00

</DataArray>
</Points>
<Cells>
<DataArray type="Int64" Name="connectivity" format="ascii">
0
2
2
3
3
4
4
5
5
6
6
7
7
8
8
9
9
10
10
11
11
12
12
13
13
14
14
15
15
16
16
17
17
18
18
1

</DataArray>
<DataArray type="Int64" Name="offsets" format="ascii">
2
4
6
8
10
12
14
16
18
20
22
24
26
28
30
32
34
36

</DataArray>
<DataArray type="Int64" Name="types" format="ascii">
3
3
3
3
3
3
3
3
3
3
3
3
3
3
3
3
3
3

</DataArray>
</Cells>
<PointData>
<DataArray type="UInt64" Name="bulk_node_ids" format="ascii">
0
1
7
8
9
10
11
12
13
14
15
16
17
18
19
20
21
22
23

</DataArray>
</PointData>
<CellData>
<DataArray type="UInt64" Name="bulk_elem_ids" format="ascii">
605
522
2523
1856
1839
2309
2207
2518
2377
2638
2465
3299
2530
3472
2634
96
2832
6920

</DataArray>
</CellData>
</Piece>
</UnstructuredGrid>
</VTKFile>
