<?xml version="1.0"?>
<VTKFile type="UnstructuredGrid" version="0.1" byte_order="LittleEndian">
<!--This file was created by meshio v4.3.11-->
<UnstructuredGrid>
<Piece NumberOfPoints="384" NumberOfCells="384">
<Points>
<DataArray type="Float64" Name="Points" NumberOfComponents="3" format="ascii">
0.00000000000e+00
0.00000000000e+00
0.00000000000e+00
1.05000000000e-03
0.00000000000e+00
0.00000000000e+00
1.05500000000e-03
0.00000000000e+00
0.00000000000e+00
1.00000000000e-01
0.00000000000e+00
0.00000000000e+00
0.00000000000e+00
1.00000000000e-01
0.00000000000e+00
0.00000000000e+00
1.05500000000e-03
0.00000000000e+00
0.00000000000e+00
1.05000000000e-03
0.00000000000e+00
2.56843684968e-04
0.00000000000e+00
0.00000000000e+00
4.51278904630e-04
0.00000000000e+00
0.00000000000e+00
5.98469809931e-04
0.00000000000e+00
0.00000000000e+00
7.09895946272e-04
0.00000000000e+00
0.00000000000e+00
7.94247496419e-04
0.00000000000e+00
0.00000000000e+00
8.58103115122e-04
0.00000000000e+00
0.00000000000e+00
9.06442954701e-04
0.00000000000e+00
0.00000000000e+00
9.43037065048e-04
0.00000000000e+00
0.00000000000e+00
9.70739453741e-04
0.00000000000e+00
0.00000000000e+00
9.91710654613e-04
0.00000000000e+00
0.00000000000e+00
1.00758622216e-03
0.00000000000e+00
0.00000000000e+00
1.01960431172e-03
0.00000000000e+00
0.00000000000e+00
1.02870221624e-03
0.00000000000e+00
0.00000000000e+00
1.03558949228e-03
0.00000000000e+00
0.00000000000e+00
1.04080328180e-03
0.00000000000e+00
0.00000000000e+00
1.04475021213e-03
0.00000000000e+00
0.00000000000e+00
1.04773810917e-03
0.00000000000e+00
0.00000000000e+00
1.05166666667e-03
0.00000000000e+00
0.00000000000e+00
1.05333333333e-03
0.00000000000e+00
0.00000000000e+00
1.05704990887e-03
0.00000000000e+00
0.00000000000e+00
1.05920594837e-03
0.00000000000e+00
0.00000000000e+00
1.06147361313e-03
0.00000000000e+00
0.00000000000e+00
1.06385868271e-03
0.00000000000e+00
0.00000000000e+00
1.06636723588e-03
0.00000000000e+00
0.00000000000e+00
1.06900566526e-03
0.00000000000e+00
0.00000000000e+00
1.07178069508e-03
0.00000000000e+00
0.00000000000e+00
1.07469939761e-03
0.00000000000e+00
0.00000000000e+00
1.07776921165e-03
0.00000000000e+00
0.00000000000e+00
1.08099796030e-03
0.00000000000e+00
0.00000000000e+00
1.08439387213e-03
0.00000000000e+00
0.00000000000e+00
1.08796560304e-03
0.00000000000e+00
0.00000000000e+00
1.09172225365e-03
0.00000000000e+00
0.00000000000e+00
1.09567339871e-03
0.00000000000e+00
0.00000000000e+00
1.09982910872e-03
0.00000000000e+00
0.00000000000e+00
1.10419997384e-03
0.00000000000e+00
0.00000000000e+00
1.10879713359e-03
0.00000000000e+00
0.00000000000e+00
1.11363230401e-03
0.00000000000e+00
0.00000000000e+00
1.11871780716e-03
0.00000000000e+00
0.00000000000e+00
1.12406660537e-03
0.00000000000e+00
0.00000000000e+00
1.12969232867e-03
0.00000000000e+00
0.00000000000e+00
1.13560931469e-03
0.00000000000e+00
0.00000000000e+00
1.14183264384e-03
0.00000000000e+00
0.00000000000e+00
1.14837817668e-03
0.00000000000e+00
0.00000000000e+00
1.15526259268e-03
0.00000000000e+00
0.00000000000e+00
1.16250344039e-03
0.00000000000e+00
0.00000000000e+00
1.17011916860e-03
0.00000000000e+00
0.00000000000e+00
1.17812919196e-03
0.00000000000e+00
0.00000000000e+00
1.18655392059e-03
0.00000000000e+00
0.00000000000e+00
1.19541482548e-03
0.00000000000e+00
0.00000000000e+00
1.20473449133e-03
0.00000000000e+00
0.00000000000e+00
1.21453666742e-03
0.00000000000e+00
0.00000000000e+00
1.22484633483e-03
0.00000000000e+00
0.00000000000e+00
1.23568977059e-03
0.00000000000e+00
0.00000000000e+00
1.24709460782e-03
0.00000000000e+00
0.00000000000e+00
1.25908991206e-03
0.00000000000e+00
0.00000000000e+00
1.27170625790e-03
0.00000000000e+00
0.00000000000e+00
1.28497578966e-03
0.00000000000e+00
0.00000000000e+00
1.29893233125e-03
0.00000000000e+00
0.00000000000e+00
1.31361145423e-03
0.00000000000e+00
0.00000000000e+00
1.32905056288e-03
0.00000000000e+00
0.00000000000e+00
1.34528900804e-03
0.00000000000e+00
0.00000000000e+00
1.36236817266e-03
0.00000000000e+00
0.00000000000e+00
1.38033158385e-03
0.00000000000e+00
0.00000000000e+00
1.39922502104e-03
0.00000000000e+00
0.00000000000e+00
1.41909664033e-03
0.00000000000e+00
0.00000000000e+00
1.43999707676e-03
0.00000000000e+00
0.00000000000e+00
1.46197960271e-03
0.00000000000e+00
0.00000000000e+00
1.48510023967e-03
0.00000000000e+00
0.00000000000e+00
1.50941791283e-03
0.00000000000e+00
0.00000000000e+00
1.53499459968e-03
0.00000000000e+00
0.00000000000e+00
1.56189546634e-03
0.00000000000e+00
0.00000000000e+00
1.59018909112e-03
0.00000000000e+00
0.00000000000e+00
1.61994757535e-03
0.00000000000e+00
0.00000000000e+00
1.65124675400e-03
0.00000000000e+00
0.00000000000e+00
1.68416639654e-03
0.00000000000e+00
0.00000000000e+00
1.71879040565e-03
0.00000000000e+00
0.00000000000e+00
1.75520701652e-03
0.00000000000e+00
0.00000000000e+00
1.79350904003e-03
0.00000000000e+00
0.00000000000e+00
1.83379409263e-03
0.00000000000e+00
0.00000000000e+00
1.87616483724e-03
0.00000000000e+00
0.00000000000e+00
1.92072926374e-03
0.00000000000e+00
0.00000000000e+00
1.96760094189e-03
0.00000000000e+00
0.00000000000e+00
2.01689932510e-03
0.00000000000e+00
0.00000000000e+00
2.06875006485e-03
0.00000000000e+00
0.00000000000e+00
2.12328528970e-03
0.00000000000e+00
0.00000000000e+00
2.18064398463e-03
0.00000000000e+00
0.00000000000e+00
2.24097233077e-03
0.00000000000e+00
0.00000000000e+00
2.30442409295e-03
0.00000000000e+00
0.00000000000e+00
2.37116095830e-03
0.00000000000e+00
0.00000000000e+00
2.44135302742e-03
0.00000000000e+00
0.00000000000e+00
2.51517919248e-03
0.00000000000e+00
0.00000000000e+00
2.59282757751e-03
0.00000000000e+00
0.00000000000e+00
2.67449608729e-03
0.00000000000e+00
0.00000000000e+00
2.76039285427e-03
0.00000000000e+00
0.00000000000e+00
2.85073679449e-03
0.00000000000e+00
0.00000000000e+00
2.94575814770e-03
0.00000000000e+00
0.00000000000e+00
3.04569907852e-03
0.00000000000e+00
0.00000000000e+00
3.15081432127e-03
0.00000000000e+00
0.00000000000e+00
3.26137170791e-03
0.00000000000e+00
0.00000000000e+00
3.37765303241e-03
0.00000000000e+00
0.00000000000e+00
3.49995464167e-03
0.00000000000e+00
0.00000000000e+00
3.62858822816e-03
0.00000000000e+00
0.00000000000e+00
3.76388162110e-03
0.00000000000e+00
0.00000000000e+00
3.90617958901e-03
0.00000000000e+00
0.00000000000e+00
4.05584484203e-03
0.00000000000e+00
0.00000000000e+00
4.21325876956e-03
0.00000000000e+00
0.00000000000e+00
4.37882253997e-03
0.00000000000e+00
0.00000000000e+00
4.55295813970e-03
0.00000000000e+00
0.00000000000e+00
4.73610932539e-03
0.00000000000e+00
0.00000000000e+00
4.92874287469e-03
0.00000000000e+00
0.00000000000e+00
5.13134971379e-03
0.00000000000e+00
0.00000000000e+00
5.34444622287e-03
0.00000000000e+00
0.00000000000e+00
5.56857549041e-03
0.00000000000e+00
0.00000000000e+00
5.80430864812e-03
0.00000000000e+00
0.00000000000e+00
6.05224649815e-03
0.00000000000e+00
0.00000000000e+00
6.31302100709e-03
0.00000000000e+00
0.00000000000e+00
6.58729666594e-03
0.00000000000e+00
0.00000000000e+00
6.87577252455e-03
0.00000000000e+00
0.00000000000e+00
7.17918376034e-03
0.00000000000e+00
0.00000000000e+00
7.49830363480e-03
0.00000000000e+00
0.00000000000e+00
7.83394541086e-03
0.00000000000e+00
0.00000000000e+00
8.18696456481e-03
0.00000000000e+00
0.00000000000e+00
8.55826071664e-03
0.00000000000e+00
0.00000000000e+00
8.94878014483e-03
0.00000000000e+00
0.00000000000e+00
9.35951815467e-03
0.00000000000e+00
0.00000000000e+00
9.79152141821e-03
0.00000000000e+00
0.00000000000e+00
1.02458909329e-02
0.00000000000e+00
0.00000000000e+00
1.07237846806e-02
0.00000000000e+00
0.00000000000e+00
1.12264207803e-02
0.00000000000e+00
0.00000000000e+00
1.17550799705e-02
0.00000000000e+00
0.00000000000e+00
1.23111096445e-02
0.00000000000e+00
0.00000000000e+00
1.28959269175e-02
0.00000000000e+00
0.00000000000e+00
1.35110221142e-02
0.00000000000e+00
0.00000000000e+00
1.41579630013e-02
0.00000000000e+00
0.00000000000e+00
1.48383981777e-02
0.00000000000e+00
0.00000000000e+00
1.55540618214e-02
0.00000000000e+00
0.00000000000e+00
1.63067777675e-02
0.00000000000e+00
0.00000000000e+00
1.70984645006e-02
0.00000000000e+00
0.00000000000e+00
1.79311397457e-02
0.00000000000e+00
0.00000000000e+00
1.88069251862e-02
0.00000000000e+00
0.00000000000e+00
1.97280528107e-02
0.00000000000e+00
0.00000000000e+00
2.06968708394e-02
0.00000000000e+00
0.00000000000e+00
2.17158475660e-02
0.00000000000e+00
0.00000000000e+00
2.27875803936e-02
0.00000000000e+00
0.00000000000e+00
2.39148003931e-02
0.00000000000e+00
0.00000000000e+00
2.51003804889e-02
0.00000000000e+00
0.00000000000e+00
2.63473419809e-02
0.00000000000e+00
0.00000000000e+00
2.76588631517e-02
0.00000000000e+00
0.00000000000e+00
2.90382862042e-02
0.00000000000e+00
0.00000000000e+00
3.04891266061e-02
0.00000000000e+00
0.00000000000e+00
3.20150821750e-02
0.00000000000e+00
0.00000000000e+00
3.36200415808e-02
0.00000000000e+00
0.00000000000e+00
3.53080952319e-02
0.00000000000e+00
0.00000000000e+00
3.70835451982e-02
0.00000000000e+00
0.00000000000e+00
3.89509166369e-02
0.00000000000e+00
0.00000000000e+00
4.09149676814e-02
0.00000000000e+00
0.00000000000e+00
4.29807046679e-02
0.00000000000e+00
0.00000000000e+00
4.51533917536e-02
0.00000000000e+00
0.00000000000e+00
4.74385666703e-02
0.00000000000e+00
0.00000000000e+00
4.98420526847e-02
0.00000000000e+00
0.00000000000e+00
5.23699754998e-02
0.00000000000e+00
0.00000000000e+00
5.50287774087e-02
0.00000000000e+00
0.00000000000e+00
5.78252345762e-02
0.00000000000e+00
0.00000000000e+00
6.07664740417e-02
0.00000000000e+00
0.00000000000e+00
6.38599914213e-02
0.00000000000e+00
0.00000000000e+00
6.71136717741e-02
0.00000000000e+00
0.00000000000e+00
7.05358051212e-02
0.00000000000e+00
0.00000000000e+00
7.41351142123e-02
0.00000000000e+00
0.00000000000e+00
7.79207711439e-02
0.00000000000e+00
0.00000000000e+00
8.19024258232e-02
0.00000000000e+00
0.00000000000e+00
8.60902238549e-02
0.00000000000e+00
0.00000000000e+00
9.04948388761e-02
0.00000000000e+00
0.00000000000e+00
9.51274954180e-02
[...]
<PointData>
<DataArray type="UInt64" Name="bulk_node_ids" format="ascii">
0
1
2
3
4
5
6
7
8
9
10
11
12
13
14
15
16
17
18
19
20
21
22
23
24
25
26
27
28
29
30
31
32
33
34
35
36
37
38
39
40
41
42
43
44
45
46
47
48
49
50
51
52
53
54
55
56
57
58
59
60
61
62
63
64
65
66
67
68
69
70
71
72
73
74
75
76
77
78
79
80
81
82
83
84
85
86
87
88
89
90
91
92
93
94
95
96
97
98
99
100
101
102
103
104
105
106
107
108
109
110
111
112
113
114
115
116
117
118
119
120
121
122
123
124
125
126
127
128
129
130
131
132
133
134
135
136
137
138
139
140
141
142
143
144
145
146
147
148
149
150
151
152
153
154
155
156
157
158
159
160
161
162
163
164
165
166
167
168
169
170
171
172
173
174
175
176
177
178
179
180
181
182
183
184
185
186
187
188
189
190
191
192
193
194
195
196
197
198
199
200
201
202
203
204
205
206
207
208
209
210
211
212
213
214
215
216
217
218
219
220
221
222
223
224
225
226
227
228
229
230
231
232
233
234
235
236
237
238
239
240
241
242
243
244
245
246
247
248
249
250
251
252
253
254
255
256
257
258
259
260
261
262
263
264
265
266
267
268
269
270
271
272
273
274
275
276
277
278
279
280
281
282
283
284
285
286
287
288
289
290
291
292
293
294
295
296
297
298
299
300
301
302
303
304
305
306
307
308
309
310
311
312
313
314
315
316
317
318
319
320
321
322
323
324
325
326
327
328
329
330
331
332
333
334
335
336
337
338
339
340
341
342
343
344
345
346
347
348
349
350
351
352
2005
2006
2007
2008
2009
2010
2011
2012
2013
2014
2015
2016
2017
2018
2019
2020
2021
2022
2023
2024
2025
2026
2027
2028
2029
2030
2031
2032
2033
2034
2035

</DataArray>
</PointData>
<CellData>
<DataArray type="UInt64" Name="bulk_elem_ids" format="ascii">
605
522
2523
1856
1839
2309
2207
2518
2377
2638
2465
3299
2530
3472
2634
96
2832
6920
16122
15474
16124
41464
28787
46077
28649
40873
28522
31059
28546
28465
31007
28454
24609
28442
24602
28434
24603
28430
31239
28448
31178
44903
28459
31012
28472
31230
28982
28491
31298
34028
28512
31414
41293
28531
31457
37372
28573
31328
29182
28618
43134
46538
28679
41096
46253
28720
31705
32198
28807
17634
29331
28884
30962
29284
28995
31223
29061
31368
29099
46006
18263
29279
31514
29371
31584
29476
32005
30330
30069
32209
30454
34210
30797
43978
30758
30816
34432
31508
30811
32536
45884
30808
41779
30800
32585
30826
32561
31231
30818
32570
30773
30807
32573
30780
30794
32571
30784
30796
32575
37615
30813
32577
30785
30799
32579
30786
30789
32805
39068
30824
32583
30819
32578
36350
30831
32572
30825
32568
30771
30810
32584
30832
46634
30722
30834
32586
30828
43742
30692
30801
32500
30657
32390
30535
32291
30400
32211
30295
30253
31523
29807
31790
29546
29185
31408
29143
31394
29117
38523
33320
28880
45238
28737
31150
28675
37855
37854
28665
29413
28777
29515
28899
29510
37083
29183
31613
29193
29808
29208
29896
29378
30057
29573
40570
30602
30240
31115
30806
25371
31219
30815
32189
30795
25530
31283
30809
31384
30830
25563
31294
30817
31382
30793
43496
35939
30804
31383
30820
30693
31338
30814
38512
20533
30821
46179
40148
30805
31385
30802
32010
32554
30812
46512
45571
30792
32920
40019
30791
44633
42342
30803
35369
46293
30823
25789
41332
30833
16668
34872
30822
37885
34345
30790
31386
30827
46764
30829
32218
31348
30798
31241
30453
30907
30068
32408
30695
29475
30009
29370
42145
29278
24544
30004
29098
29689
29060
33768
28994
24130
33630
28883
24133
29666
28806
32546
40009
28719
23827
33087
28678
23926
24241
28617
23817
24125
28572
23716
24014
28530
42394
39489
28511
17829
16762
28490
32675
45895
28471
32416
28458
23452
19224
28447
45280
28429
31015
28433
31551
28441
24594
28453
29174
28464
16758
31020
28521
39903
28648
29407
28786
41466
16123
15473
16121
6915
2816
3468
2619
3499
2525
3407
2467
3346
2376
3100
2208
3000
2456
1855
2460
521
1649
41005
35550
32950
28133
40733
45638
28350
33386
28560
33365
28315
33426
28702
33589
33465
28449
17205
46685
28727
28032
28371
33405
28549
33341
28279
45913
33194
28189
32982
28098
35421
41002

</DataArray>
</CellData>
</Piece>
</UnstructuredGrid>
</VTKFile>
