<?xml version="1.0"?>
<VTKFile type="UnstructuredGrid" version="0.1" byte_order="LittleEndian">
<!--This file was created by meshio v4.3.11-->
<UnstructuredGrid>
<Piece NumberOfPoints="156" NumberOfCells="155">
<Points>
<DataArray type="Float64" Name="Points" NumberOfComponents="3" format="ascii">
0.00000000000e+00
1.00000000000e-01
0.00000000000e+00
0.00000000000e+00
1.05500000000e-03
0.00000000000e+00
0.00000000000e+00
9.51274954181e-02
0.00000000000e+00
0.00000000000e+00
9.04948388761e-02
0.00000000000e+00
0.00000000000e+00
8.60902238550e-02
0.00000000000e+00
0.00000000000e+00
8.19024258234e-02
0.00000000000e+00
0.00000000000e+00
7.79207711441e-02
0.00000000000e+00
0.00000000000e+00
7.41351142125e-02
0.00000000000e+00
0.00000000000e+00
7.05358051214e-02
0.00000000000e+00
0.00000000000e+00
6.71136717744e-02
0.00000000000e+00
0.00000000000e+00
6.38599914216e-02
0.00000000000e+00
0.00000000000e+00
6.07664740420e-02
0.00000000000e+00
0.00000000000e+00
5.78252345765e-02
0.00000000000e+00
0.00000000000e+00
5.50287774090e-02
0.00000000000e+00
0.00000000000e+00
5.23699755001e-02
0.00000000000e+00
0.00000000000e+00
4.98420526850e-02
0.00000000000e+00
0.00000000000e+00
4.74385666706e-02
0.00000000000e+00
0.00000000000e+00
4.51533917538e-02
0.00000000000e+00
0.00000000000e+00
4.29807046682e-02
0.00000000000e+00
0.00000000000e+00
4.09149676817e-02
0.00000000000e+00
0.00000000000e+00
3.89509166371e-02
0.00000000000e+00
0.00000000000e+00
3.70835451984e-02
0.00000000000e+00
0.00000000000e+00
3.53080952321e-02
0.00000000000e+00
0.00000000000e+00
3.36200415810e-02
0.00000000000e+00
0.00000000000e+00
3.20150821751e-02
0.00000000000e+00
0.00000000000e+00
3.04891266063e-02
0.00000000000e+00
0.00000000000e+00
2.90382862043e-02
0.00000000000e+00
0.00000000000e+00
2.76588631519e-02
0.00000000000e+00
0.00000000000e+00
2.63473419810e-02
0.00000000000e+00
0.00000000000e+00
2.51003804890e-02
0.00000000000e+00
0.00000000000e+00
2.39148003932e-02
0.00000000000e+00
0.00000000000e+00
2.27875803937e-02
0.00000000000e+00
0.00000000000e+00
2.17158475661e-02
0.00000000000e+00
0.00000000000e+00
2.06968708395e-02
0.00000000000e+00
0.00000000000e+00
1.97280528108e-02
0.00000000000e+00
0.00000000000e+00
1.88069251863e-02
0.00000000000e+00
0.00000000000e+00
1.79311397458e-02
0.00000000000e+00
0.00000000000e+00
1.70984645007e-02
0.00000000000e+00
0.00000000000e+00
1.63067777676e-02
0.00000000000e+00
0.00000000000e+00
1.55540618215e-02
0.00000000000e+00
0.00000000000e+00
1.48383981777e-02
0.00000000000e+00
0.00000000000e+00
1.41579630014e-02
0.00000000000e+00
0.00000000000e+00
1.35110221142e-02
0.00000000000e+00
0.00000000000e+00
1.28959269175e-02
0.00000000000e+00
0.00000000000e+00
1.23111096445e-02
0.00000000000e+00
0.00000000000e+00
1.17550799705e-02
0.00000000000e+00
0.00000000000e+00
1.12264207804e-02
0.00000000000e+00
0.00000000000e+00
1.07237846806e-02
0.00000000000e+00
0.00000000000e+00
1.02458909329e-02
0.00000000000e+00
0.00000000000e+00
9.79152141825e-03
0.00000000000e+00
0.00000000000e+00
9.35951815470e-03
0.00000000000e+00
0.00000000000e+00
8.94878014486e-03
0.00000000000e+00
0.00000000000e+00
8.55826071667e-03
0.00000000000e+00
0.00000000000e+00
8.18696456484e-03
0.00000000000e+00
0.00000000000e+00
7.83394541089e-03
0.00000000000e+00
0.00000000000e+00
7.49830363482e-03
0.00000000000e+00
0.00000000000e+00
7.17918376036e-03
0.00000000000e+00
0.00000000000e+00
6.87577252457e-03
0.00000000000e+00
0.00000000000e+00
6.58729666596e-03
0.00000000000e+00
0.00000000000e+00
6.31302100711e-03
0.00000000000e+00
0.00000000000e+00
6.05224649816e-03
0.00000000000e+00
0.00000000000e+00
5.80430864814e-03
0.00000000000e+00
0.00000000000e+00
5.56857549043e-03
0.00000000000e+00
0.00000000000e+00
5.34444622288e-03
0.00000000000e+00
0.00000000000e+00
5.13134971380e-03
0.00000000000e+00
0.00000000000e+00
4.92874287471e-03
0.00000000000e+00
0.00000000000e+00
4.73610932540e-03
0.00000000000e+00
0.00000000000e+00
4.55295813971e-03
0.00000000000e+00
0.00000000000e+00
4.37882253998e-03
0.00000000000e+00
0.00000000000e+00
4.21325876957e-03
0.00000000000e+00
0.00000000000e+00
4.05584484204e-03
0.00000000000e+00
0.00000000000e+00
3.90617958901e-03
0.00000000000e+00
0.00000000000e+00
3.76388162111e-03
0.00000000000e+00
0.00000000000e+00
3.62858822816e-03
0.00000000000e+00
0.00000000000e+00
3.49995464168e-03
0.00000000000e+00
0.00000000000e+00
3.37765303241e-03
0.00000000000e+00
0.00000000000e+00
3.26137170792e-03
0.00000000000e+00
0.00000000000e+00
3.15081432127e-03
0.00000000000e+00
0.00000000000e+00
3.04569907852e-03
0.00000000000e+00
0.00000000000e+00
2.94575814770e-03
0.00000000000e+00
0.00000000000e+00
2.85073679450e-03
0.00000000000e+00
0.00000000000e+00
2.76039285427e-03
0.00000000000e+00
0.00000000000e+00
2.67449608730e-03
0.00000000000e+00
0.00000000000e+00
2.59282757751e-03
0.00000000000e+00
0.00000000000e+00
2.51517919249e-03
0.00000000000e+00
0.00000000000e+00
2.44135302742e-03
0.00000000000e+00
0.00000000000e+00
2.37116095831e-03
0.00000000000e+00
0.00000000000e+00
2.30442409295e-03
0.00000000000e+00
0.00000000000e+00
2.24097233077e-03
0.00000000000e+00
0.00000000000e+00
2.18064398463e-03
0.00000000000e+00
0.00000000000e+00
2.12328528971e-03
0.00000000000e+00
0.00000000000e+00
2.06875006485e-03
0.00000000000e+00
0.00000000000e+00
2.01689932510e-03
0.00000000000e+00
0.00000000000e+00
1.96760094189e-03
0.00000000000e+00
0.00000000000e+00
1.92072926374e-03
0.00000000000e+00
0.00000000000e+00
1.87616483724e-03
0.00000000000e+00
0.00000000000e+00
1.83379409263e-03
0.00000000000e+00
0.00000000000e+00
1.79350904003e-03
0.00000000000e+00
0.00000000000e+00
1.75520701652e-03
0.00000000000e+00
0.00000000000e+00
1.71879040565e-03
0.00000000000e+00
0.00000000000e+00
1.68416639654e-03
0.00000000000e+00
0.00000000000e+00
1.65124675400e-03
0.00000000000e+00
0.00000000000e+00
1.61994757535e-03
0.00000000000e+00
0.00000000000e+00
1.59018909112e-03
0.00000000000e+00
0.00000000000e+00
1.56189546634e-03
0.00000000000e+00
0.00000000000e+00
1.53499459968e-03
0.00000000000e+00
0.00000000000e+00
1.50941791283e-03
0.00000000000e+00
0.00000000000e+00
1.48510023967e-03
0.00000000000e+00
0.00000000000e+00
1.46197960271e-03
0.00000000000e+00
0.00000000000e+00
1.43999707676e-03
0.00000000000e+00
0.00000000000e+00
1.41909664034e-03
0.00000000000e+00
0.00000000000e+00
1.39922502104e-03
0.00000000000e+00
0.00000000000e+00
1.38033158385e-03
0.00000000000e+00
0.00000000000e+00
1.36236817266e-03
0.00000000000e+00
0.00000000000e+00
1.34528900804e-03
0.00000000000e+00
0.00000000000e+00
1.32905056288e-03
0.00000000000e+00
0.00000000000e+00
1.31361145423e-03
0.00000000000e+00
0.00000000000e+00
1.29893233126e-03
0.00000000000e+00
0.00000000000e+00
1.28497578966e-03
0.00000000000e+00
0.00000000000e+00
1.27170625790e-03
0.00000000000e+00
0.00000000000e+00
1.25908991206e-03
0.00000000000e+00
0.00000000000e+00
1.24709460782e-03
0.00000000000e+00
0.00000000000e+00
1.23568977059e-03
0.00000000000e+00
0.00000000000e+00
1.22484633483e-03
0.00000000000e+00
0.00000000000e+00
1.21453666742e-03
0.00000000000e+00
0.00000000000e+00
1.20473449133e-03
0.00000000000e+00
0.00000000000e+00
1.19541482548e-03
0.00000000000e+00
0.00000000000e+00
1.18655392059e-03
0.00000000000e+00
0.00000000000e+00
1.17812919196e-03
0.00000000000e+00
0.00000000000e+00
1.17011916860e-03
0.00000000000e+00
0.00000000000e+00
1.16250344039e-03
0.00000000000e+00
0.00000000000e+00
1.15526259268e-03
0.00000000000e+00
0.00000000000e+00
1.14837817668e-03
0.00000000000e+00
0.00000000000e+00
1.14183264384e-03
0.00000000000e+00
0.00000000000e+00
1.13560931469e-03
0.00000000000e+00
0.00000000000e+00
1.12969232867e-03
0.00000000000e+00
0.00000000000e+00
1.12406660537e-03
0.00000000000e+00
0.00000000000e+00
1.11871780716e-03
0.00000000000e+00
0.00000000000e+00
1.11363230401e-03
0.00000000000e+00
0.00000000000e+00
1.10879713359e-03
0.00000000000e+00
0.00000000000e+00
1.10419997384e-03
0.00000000000e+00
0.00000000000e+00
1.09982910872e-03
0.00000000000e+00
0.00000000000e+00
1.09567339871e-03
0.00000000000e+00
0.00000000000e+00
1.09172225365e-03
0.00000000000e+00
0.00000000000e+00
1.08796560304e-03
0.00000000000e+00
0.00000000000e+00
1.08439387213e-03
0.00000000000e+00
0.00000000000e+00
1.08099796030e-03
0.00000000000e+00
0.00000000000e+00
1.07776921165e-03
0.00000000000e+00
0.00000000000e+00
1.07469939761e-03
0.00000000000e+00
0.00000000000e+00
1.07178069508e-03
0.00000000000e+00
0.00000000000e+00
1.06900566526e-03
0.00000000000e+00
0.00000000000e+00
1.06636723588e-03
0.00000000000e+00
0.00000000000e+00
1.06385868271e-03
0.00000000000e+00
0.00000000000e+00
1.06147361313e-03
0.00000000000e+00
0.00000000000e+00
1.05920594837e-03
0.00000000000e+00
0.00000000000e+00
1.05704990887e-03
0.00000000000e+00

</DataArray>
</Points>
<Cells>
<DataArray type="Int64" Name="connectivity" format="ascii">
0
2
2
3
3
4
4
5
5
6
6
7
7
8
8
9
9
10
10
11
11
12
12
13
13
14
14
15
15
16
16
17
17
18
18
19
19
20
20
21
21
22
22
23
23
24
24
25
25
26
26
27
27
28
28
29
29
30
30
31
31
32
32
33
33
34
34
35
35
36
36
37
37
38
38
39
39
40
40
41
41
42
42
43
43
44
44
45
45
46
46
47
47
48
48
49
49
50
50
51
51
52
52
53
53
54
54
55
55
56
56
57
57
58
58
59
59
60
60
61
61
62
62
63
63
64
64
65
65
66
66
67
67
68
68
69
69
70
70
71
71
72
72
73
73
74
74
75
75
76
76
77
77
78
78
79
79
80
80
81
81
82
82
83
83
84
84
85
85
86
86
87
87
88
88
89
89
90
90
91
91
92
92
93
93
94
94
95
95
96
96
97
97
98
98
99
99
100
100
101
101
102
102
103
103
104
104
105
105
106
106
107
107
108
108
109
109
110
110
111
111
112
112
113
113
114
114
115
115
116
116
117
117
118
118
119
119
120
120
121
121
122
122
123
123
124
124
125
125
126
126
127
127
128
128
129
129
130
130
131
131
132
132
133
133
134
134
135
135
136
136
137
137
138
138
139
139
140
140
141
141
142
142
143
143
144
144
145
145
146
146
147
147
148
148
149
149
150
150
151
151
152
152
153
153
154
154
155
155
1

</DataArray>
<DataArray type="Int64" Name="offsets" format="ascii">
2
4
6
8
10
12
14
16
18
20
22
24
26
28
30
32
34
36
38
40
42
44
46
48
50
52
54
56
58
60
62
64
66
68
70
72
74
76
78
80
82
84
86
88
90
92
94
96
98
100
102
104
106
108
110
112
114
116
118
120
122
124
126
128
130
132
134
136
138
140
142
144
146
148
150
152
154
156
158
160
162
164
166
168
170
172
174
176
178
180
182
184
186
188
190
192
194
196
198
200
202
204
206
208
210
212
214
216
218
220
222
224
226
228
230
232
234
236
238
240
242
244
246
248
250
252
254
256
258
260
262
264
266
268
270
272
274
276
278
280
282
284
286
288
290
292
294
296
298
300
302
304
306
308
310

</DataArray>
<DataArray type="Int64" Name="types" format="ascii">
3
3
3
3
3
3
3
3
3
3
3
3
3
3
3
3
3
3
3
3
3
3
3
3
3
3
3
3
3
3
3
3
3
3
3
3
3
3
3
3
3
3
3
3
3
3
3
3
3
3
3
3
3
3
3
3
3
3
3
3
3
3
3
3
3
3
3
3
3
3
3
3
3
3
3
3
3
3
3
3
3
3
3
3
3
3
3
3
3
3
3
3
3
3
3
3
3
3
3
3
3
3
3
3
3
3
3
3
3
3
3
3
3
3
3
3
3
3
3
3
3
3
3
3
3
3
3
3
3
3
3
3
3
3
3
3
3
3
3
3
3
3
3
3
3
3
3
3
3
3
3
3
3
3
3

</DataArray>
</Cells>
<PointData>
<DataArray type="UInt64" Name="bulk_node_ids" format="ascii">
4
5
180
181
182
183
184
185
186
187
188
189
190
191
192
193
194
195
196
197
198
199
200
201
202
203
204
205
206
207
208
209
210
211
212
213
214
215
216
217
218
219
220
221
222
223
224
225
226
227
228
229
230
231
232
233
234
235
236
237
238
239
240
241
242
243
244
245
246
247
248
249
250
251
252
253
254
255
256
257
258
259
260
261
262
263
264
265
266
267
268
269
270
271
272
273
274
275
276
277
278
279
280
281
282
283
284
285
286
287
288
289
290
291
292
293
294
295
296
297
298
299
300
301
302
303
304
305
306
307
308
309
310
311
312
313
314
315
316
317
318
319
320
321
322
323
324
325
326
327
328
329
330
331
332
333

</DataArray>
</PointData>
<CellData>
<DataArray type="UInt64" Name="bulk_elem_ids" format="ascii">
37854
28665
29413
28777
29515
28899
29510
37083
29183
31613
29193
29808
29208
29896
29378
30057
29573
40570
30602
30240
31115
30806
25371
31219
30815
32189
30795
25530
31283
30809
31384
30830
25563
31294
30817
31382
30793
43496
35939
30804
31383
30820
30693
31338
30814
38512
20533
30821
46179
40148
30805
31385
30802
32010
32554
30812
46512
45571
30792
32920
40019
30791
44633
42342
30803
35369
46293
30823
25789
41332
30833
16668
34872
30822
37885
34345
30790
31386
30827
46764
30829
32218
31348
30798
31241
30453
30907
30068
32408
30695
29475
30009
29370
42145
29278
24544
30004
29098
29689
29060
33768
28994
24130
33630
28883
24133
29666
28806
32546
40009
28719
23827
33087
28678
23926
24241
28617
23817
24125
28572
23716
24014
28530
42394
39489
28511
17829
16762
28490
32675
45895
28471
32416
28458
23452
19224
28447
45280
28429
31015
28433
31551
28441
24594
28453
29174
28464
16758
31020
28521
39903
28648
29407
28786
41466

</DataArray>
</CellData>
</Piece>
</UnstructuredGrid>
</VTKFile>
