<?xml version="1.0"?>
<VTKFile type="UnstructuredGrid" version="0.1" byte_order="LittleEndian">
<!--This file was created by meshio v4.3.11-->
<UnstructuredGrid>
<Piece NumberOfPoints="4" NumberOfCells="3">
<Points>
<DataArray type="Float64" Name="Points" NumberOfComponents="3" format="ascii">
0.00000000000e+00
1.05500000000e-03
0.00000000000e+00
0.00000000000e+00
1.05000000000e-03
0.00000000000e+00
0.00000000000e+00
1.05333333333e-03
0.00000000000e+00
0.00000000000e+00
1.05166666667e-03
0.00000000000e+00

</DataArray>
</Points>
<Cells>
<DataArray type="Int64" Name="connectivity" format="ascii">
0
2
2
3
3
1

</DataArray>
<DataArray type="Int64" Name="offsets" format="ascii">
2
4
6

</DataArray>
<DataArray type="Int64" Name="types" format="ascii">
3
3
3

</DataArray>
</Cells>
<PointData>
<DataArray type="UInt64" Name="bulk_node_ids" format="ascii">
5
6
334
335

</DataArray>
</PointData>
<CellData>
<DataArray type="UInt64" Name="bulk_elem_ids" format="ascii">
16123
15473
16121

</DataArray>
</CellData>
</Piece>
</UnstructuredGrid>
</VTKFile>
