<?xml version="1.0"?>
<VTKFile type="UnstructuredGrid" version="0.1" byte_order="LittleEndian">
<!--This file was created by meshio v4.3.11-->
<UnstructuredGrid>
<Piece NumberOfPoints="19" NumberOfCells="18">
<Points>
<DataArray type="Float64" Name="Points" NumberOfComponents="3" format="ascii">
0.00000000000e+00
0.00000000000e+00
0.00000000000e+00
0.00000000000e+00
1.05000000000e-03
0.00000000000e+00
0.00000000000e+00
1.04773810917e-03
0.00000000000e+00
0.00000000000e+00
1.04475021213e-03
0.00000000000e+00
0.00000000000e+00
1.04080328180e-03
0.00000000000e+00
0.00000000000e+00
1.03558949228e-03
0.00000000000e+00
0.00000000000e+00
1.02870221624e-03
0.00000000000e+00
0.00000000000e+00
1.01960431172e-03
0.00000000000e+00
0.00000000000e+00
1.00758622216e-03
0.00000000000e+00
0.00000000000e+00
9.91710654613e-04
0.00000000000e+00
0.00000000000e+00
9.70739453741e-04
0.00000000000e+00
0.00000000000e+00
9.43037065049e-04
0.00000000000e+00
0.00000000000e+00
9.06442954702e-04
0.00000000000e+00
0.00000000000e+00
8.58103115123e-04
0.00000000000e+00
0.00000000000e+00
7.94247496420e-04
0.00000000000e+00
0.00000000000e+00
7.09895946274e-04
0.00000000000e+00
0.00000000000e+00
5.98469809934e-04
0.00000000000e+00
0.00000000000e+00
4.51278904633e-04
0.00000000000e+00
0.00000000000e+00
2.56843684970e-04
0.00000000000e+00

</DataArray>
</Points>
<Cells>
<DataArray type="Int64" Name="connectivity" format="ascii">
1
2
2
3
3
4
4
5
5
6
6
7
7
8
8
9
9
10
10
11
11
12
12
13
13
14
14
15
15
16
16
17
17
18
18
0

</DataArray>
<DataArray type="Int64" Name="offsets" format="ascii">
2
4
6
8
10
12
14
16
18
20
22
24
26
28
30
32
34
36

</DataArray>
<DataArray type="Int64" Name="types" format="ascii">
3
3
3
3
3
3
3
3
3
3
3
3
3
3
3
3
3
3

</DataArray>
</Cells>
<PointData>
<DataArray type="UInt64" Name="bulk_node_ids" format="ascii">
0
6
336
337
338
339
340
341
342
343
344
345
346
347
348
349
350
351
352

</DataArray>
</PointData>
<CellData>
<DataArray type="UInt64" Name="bulk_elem_ids" format="ascii">
6915
2816
3468
2619
3499
2525
3407
2467
3346
2376
3100
2208
3000
2456
1855
2460
521
1649

</DataArray>
</CellData>
</Piece>
</UnstructuredGrid>
</VTKFile>
