<?xml version="1.0"?>
<VTKFile type="UnstructuredGrid" version="0.1" byte_order="LittleEndian">
<!--This file was created by meshio v4.3.11-->
<UnstructuredGrid>
<Piece NumberOfPoints="156" NumberOfCells="155">
<Points>
<DataArray type="Float64" Name="Points" NumberOfComponents="3" format="ascii">
1.05500000000e-03
0.00000000000e+00
0.00000000000e+00
1.00000000000e-01
0.00000000000e+00
0.00000000000e+00
1.05704990887e-03
0.00000000000e+00
0.00000000000e+00
1.05920594837e-03
0.00000000000e+00
0.00000000000e+00
1.06147361313e-03
0.00000000000e+00
0.00000000000e+00
1.06385868271e-03
0.00000000000e+00
0.00000000000e+00
1.06636723588e-03
0.00000000000e+00
0.00000000000e+00
1.06900566526e-03
0.00000000000e+00
0.00000000000e+00
1.07178069508e-03
0.00000000000e+00
0.00000000000e+00
1.07469939761e-03
0.00000000000e+00
0.00000000000e+00
1.07776921165e-03
0.00000000000e+00
0.00000000000e+00
1.08099796030e-03
0.00000000000e+00
0.00000000000e+00
1.08439387213e-03
0.00000000000e+00
0.00000000000e+00
1.08796560304e-03
0.00000000000e+00
0.00000000000e+00
1.09172225365e-03
0.00000000000e+00
0.00000000000e+00
1.09567339871e-03
0.00000000000e+00
0.00000000000e+00
1.09982910872e-03
0.00000000000e+00
0.00000000000e+00
1.10419997384e-03
0.00000000000e+00
0.00000000000e+00
1.10879713359e-03
0.00000000000e+00
0.00000000000e+00
1.11363230401e-03
0.00000000000e+00
0.00000000000e+00
1.11871780716e-03
0.00000000000e+00
0.00000000000e+00
1.12406660537e-03
0.00000000000e+00
0.00000000000e+00
1.12969232867e-03
0.00000000000e+00
0.00000000000e+00
1.13560931469e-03
0.00000000000e+00
0.00000000000e+00
1.14183264384e-03
0.00000000000e+00
0.00000000000e+00
1.14837817668e-03
0.00000000000e+00
0.00000000000e+00
1.15526259268e-03
0.00000000000e+00
0.00000000000e+00
1.16250344039e-03
0.00000000000e+00
0.00000000000e+00
1.17011916860e-03
0.00000000000e+00
0.00000000000e+00
1.17812919196e-03
0.00000000000e+00
0.00000000000e+00
1.18655392059e-03
0.00000000000e+00
0.00000000000e+00
1.19541482548e-03
0.00000000000e+00
0.00000000000e+00
1.20473449133e-03
0.00000000000e+00
0.00000000000e+00
1.21453666742e-03
0.00000000000e+00
0.00000000000e+00
1.22484633483e-03
0.00000000000e+00
0.00000000000e+00
1.23568977059e-03
0.00000000000e+00
0.00000000000e+00
1.24709460782e-03
0.00000000000e+00
0.00000000000e+00
1.25908991206e-03
0.00000000000e+00
0.00000000000e+00
1.27170625790e-03
0.00000000000e+00
0.00000000000e+00
1.28497578966e-03
0.00000000000e+00
0.00000000000e+00
1.29893233125e-03
0.00000000000e+00
0.00000000000e+00
1.31361145423e-03
0.00000000000e+00
0.00000000000e+00
1.32905056288e-03
0.00000000000e+00
0.00000000000e+00
1.34528900804e-03
0.00000000000e+00
0.00000000000e+00
1.36236817266e-03
0.00000000000e+00
0.00000000000e+00
1.38033158385e-03
0.00000000000e+00
0.00000000000e+00
1.39922502104e-03
0.00000000000e+00
0.00000000000e+00
1.41909664033e-03
0.00000000000e+00
0.00000000000e+00
1.43999707676e-03
0.00000000000e+00
0.00000000000e+00
1.46197960271e-03
0.00000000000e+00
0.00000000000e+00
1.48510023967e-03
0.00000000000e+00
0.00000000000e+00
1.50941791283e-03
0.00000000000e+00
0.00000000000e+00
1.53499459968e-03
0.00000000000e+00
0.00000000000e+00
1.56189546634e-03
0.00000000000e+00
0.00000000000e+00
1.59018909112e-03
0.00000000000e+00
0.00000000000e+00
1.61994757535e-03
0.00000000000e+00
0.00000000000e+00
1.65124675400e-03
0.00000000000e+00
0.00000000000e+00
1.68416639654e-03
0.00000000000e+00
0.00000000000e+00
1.71879040565e-03
0.00000000000e+00
0.00000000000e+00
1.75520701652e-03
0.00000000000e+00
0.00000000000e+00
1.79350904003e-03
0.00000000000e+00
0.00000000000e+00
1.83379409263e-03
0.00000000000e+00
0.00000000000e+00
1.87616483724e-03
0.00000000000e+00
0.00000000000e+00
1.92072926374e-03
0.00000000000e+00
0.00000000000e+00
1.96760094189e-03
0.00000000000e+00
0.00000000000e+00
2.01689932510e-03
0.00000000000e+00
0.00000000000e+00
2.06875006485e-03
0.00000000000e+00
0.00000000000e+00
2.12328528970e-03
0.00000000000e+00
0.00000000000e+00
2.18064398463e-03
0.00000000000e+00
0.00000000000e+00
2.24097233077e-03
0.00000000000e+00
0.00000000000e+00
2.30442409295e-03
0.00000000000e+00
0.00000000000e+00
2.37116095830e-03
0.00000000000e+00
0.00000000000e+00
2.44135302742e-03
0.00000000000e+00
0.00000000000e+00
2.51517919248e-03
0.00000000000e+00
0.00000000000e+00
2.59282757751e-03
0.00000000000e+00
0.00000000000e+00
2.67449608729e-03
0.00000000000e+00
0.00000000000e+00
2.76039285427e-03
0.00000000000e+00
0.00000000000e+00
2.85073679449e-03
0.00000000000e+00
0.00000000000e+00
2.94575814770e-03
0.00000000000e+00
0.00000000000e+00
3.04569907852e-03
0.00000000000e+00
0.00000000000e+00
3.15081432127e-03
0.00000000000e+00
0.00000000000e+00
3.26137170791e-03
0.00000000000e+00
0.00000000000e+00
3.37765303241e-03
0.00000000000e+00
0.00000000000e+00
3.49995464167e-03
0.00000000000e+00
0.00000000000e+00
3.62858822816e-03
0.00000000000e+00
0.00000000000e+00
3.76388162110e-03
0.00000000000e+00
0.00000000000e+00
3.90617958901e-03
0.00000000000e+00
0.00000000000e+00
4.05584484203e-03
0.00000000000e+00
0.00000000000e+00
4.21325876956e-03
0.00000000000e+00
0.00000000000e+00
4.37882253997e-03
0.00000000000e+00
0.00000000000e+00
4.55295813970e-03
0.00000000000e+00
0.00000000000e+00
4.73610932539e-03
0.00000000000e+00
0.00000000000e+00
4.92874287469e-03
0.00000000000e+00
0.00000000000e+00
5.13134971379e-03
0.00000000000e+00
0.00000000000e+00
5.34444622287e-03
0.00000000000e+00
0.00000000000e+00
5.56857549041e-03
0.00000000000e+00
0.00000000000e+00
5.80430864812e-03
0.00000000000e+00
0.00000000000e+00
6.05224649815e-03
0.00000000000e+00
0.00000000000e+00
6.31302100709e-03
0.00000000000e+00
0.00000000000e+00
6.58729666594e-03
0.00000000000e+00
0.00000000000e+00
6.87577252455e-03
0.00000000000e+00
0.00000000000e+00
7.17918376034e-03
0.00000000000e+00
0.00000000000e+00
7.49830363480e-03
0.00000000000e+00
0.00000000000e+00
7.83394541086e-03
0.00000000000e+00
0.00000000000e+00
8.18696456481e-03
0.00000000000e+00
0.00000000000e+00
8.55826071664e-03
0.00000000000e+00
0.00000000000e+00
8.94878014483e-03
0.00000000000e+00
0.00000000000e+00
9.35951815467e-03
0.00000000000e+00
0.00000000000e+00
9.79152141821e-03
0.00000000000e+00
0.00000000000e+00
1.02458909329e-02
0.00000000000e+00
0.00000000000e+00
1.07237846806e-02
0.00000000000e+00
0.00000000000e+00
1.12264207803e-02
0.00000000000e+00
0.00000000000e+00
1.17550799705e-02
0.00000000000e+00
0.00000000000e+00
1.23111096445e-02
0.00000000000e+00
0.00000000000e+00
1.28959269175e-02
0.00000000000e+00
0.00000000000e+00
1.35110221142e-02
0.00000000000e+00
0.00000000000e+00
1.41579630013e-02
0.00000000000e+00
0.00000000000e+00
1.48383981777e-02
0.00000000000e+00
0.00000000000e+00
1.55540618214e-02
0.00000000000e+00
0.00000000000e+00
1.63067777675e-02
0.00000000000e+00
0.00000000000e+00
1.70984645006e-02
0.00000000000e+00
0.00000000000e+00
1.79311397457e-02
0.00000000000e+00
0.00000000000e+00
1.88069251862e-02
0.00000000000e+00
0.00000000000e+00
1.97280528107e-02
0.00000000000e+00
0.00000000000e+00
2.06968708394e-02
0.00000000000e+00
0.00000000000e+00
2.17158475660e-02
0.00000000000e+00
0.00000000000e+00
2.27875803936e-02
0.00000000000e+00
0.00000000000e+00
2.39148003931e-02
0.00000000000e+00
0.00000000000e+00
2.51003804889e-02
0.00000000000e+00
0.00000000000e+00
2.63473419809e-02
0.00000000000e+00
0.00000000000e+00
2.76588631517e-02
0.00000000000e+00
0.00000000000e+00
2.90382862042e-02
0.00000000000e+00
0.00000000000e+00
3.04891266061e-02
0.00000000000e+00
0.00000000000e+00
3.20150821750e-02
0.00000000000e+00
0.00000000000e+00
3.36200415808e-02
0.00000000000e+00
0.00000000000e+00
3.53080952319e-02
0.00000000000e+00
0.00000000000e+00
3.70835451982e-02
0.00000000000e+00
0.00000000000e+00
3.89509166369e-02
0.00000000000e+00
0.00000000000e+00
4.09149676814e-02
0.00000000000e+00
0.00000000000e+00
4.29807046679e-02
0.00000000000e+00
0.00000000000e+00
4.51533917536e-02
0.00000000000e+00
0.00000000000e+00
4.74385666703e-02
0.00000000000e+00
0.00000000000e+00
4.98420526847e-02
0.00000000000e+00
0.00000000000e+00
5.23699754998e-02
0.00000000000e+00
0.00000000000e+00
5.50287774087e-02
0.00000000000e+00
0.00000000000e+00
5.78252345762e-02
0.00000000000e+00
0.00000000000e+00
6.07664740417e-02
0.00000000000e+00
0.00000000000e+00
6.38599914213e-02
0.00000000000e+00
0.00000000000e+00
6.71136717741e-02
0.00000000000e+00
0.00000000000e+00
7.05358051212e-02
0.00000000000e+00
0.00000000000e+00
7.41351142123e-02
0.00000000000e+00
0.00000000000e+00
7.79207711439e-02
0.00000000000e+00
0.00000000000e+00
8.19024258232e-02
0.00000000000e+00
0.00000000000e+00
8.60902238549e-02
0.00000000000e+00
0.00000000000e+00
9.04948388761e-02
0.00000000000e+00
0.00000000000e+00
9.51274954180e-02
0.00000000000e+00
0.00000000000e+00

</DataArray>
</Points>
<Cells>
<DataArray type="Int64" Name="connectivity" format="ascii">
0
2
2
3
3
4
4
5
5
6
6
7
7
8
8
9
9
10
10
11
11
12
12
13
13
14
14
15
15
16
16
17
17
18
18
19
19
20
20
21
21
22
22
23
23
24
24
25
25
26
26
27
27
28
28
29
29
30
30
31
31
32
32
33
33
34
34
35
35
36
36
37
37
38
38
39
39
40
40
41
41
42
42
43
43
44
44
45
45
46
46
47
47
48
48
49
49
50
50
51
51
52
52
53
53
54
54
55
55
56
56
57
57
58
58
59
59
60
60
61
61
62
62
63
63
64
64
65
65
66
66
67
67
68
68
69
69
70
70
71
71
72
72
73
73
74
74
75
75
76
76
77
77
78
78
79
79
80
80
81
81
82
82
83
83
84
84
85
85
86
86
87
87
88
88
89
89
90
90
91
91
92
92
93
93
94
94
95
95
96
96
97
97
98
98
99
99
100
100
101
101
102
102
103
103
104
104
105
105
106
106
107
107
108
108
109
109
110
110
111
111
112
112
113
113
114
114
115
115
116
116
117
117
118
118
119
119
120
120
121
121
122
122
123
123
124
124
125
125
126
126
127
127
128
128
129
129
130
130
131
131
132
132
133
133
134
134
135
135
136
136
137
137
138
138
139
139
140
140
141
141
142
142
143
143
144
144
145
145
146
146
147
147
148
148
149
149
150
150
151
151
152
152
153
153
154
154
155
155
1

</DataArray>
<DataArray type="Int64" Name="offsets" format="ascii">
2
4
6
8
10
12
14
16
18
20
22
24
26
28
30
32
34
36
38
40
42
44
46
48
50
52
54
56
58
60
62
64
66
68
70
72
74
76
78
80
82
84
86
88
90
92
94
96
98
100
102
104
106
108
110
112
114
116
118
120
122
124
126
128
130
132
134
136
138
140
142
144
146
148
150
152
154
156
158
160
162
164
166
168
170
172
174
176
178
180
182
184
186
188
190
192
194
196
198
200
202
204
206
208
210
212
214
216
218
220
222
224
226
228
230
232
234
236
238
240
242
244
246
248
250
252
254
256
258
260
262
264
266
268
270
272
274
276
278
280
282
284
286
288
290
292
294
296
298
300
302
304
306
308
310

</DataArray>
<DataArray type="Int64" Name="types" format="ascii">
3
3
3
3
3
3
3
3
3
3
3
3
3
3
3
3
3
3
3
3
3
3
3
3
3
3
3
3
3
3
3
3
3
3
3
3
3
3
3
3
3
3
3
3
3
3
3
3
3
3
3
3
3
3
3
3
3
3
3
3
3
3
3
3
3
3
3
3
3
3
3
3
3
3
3
3
3
3
3
3
3
3
3
3
3
3
3
3
3
3
3
3
3
3
3
3
3
3
3
3
3
3
3
3
3
3
3
3
3
3
3
3
3
3
3
3
3
3
3
3
3
3
3
3
3
3
3
3
3
3
3
3
3
3
3
3
3
3
3
3
3
3
3
3
3
3
3
3
3
3
3
3
3
3
3

</DataArray>
</Cells>
<PointData>
<DataArray type="UInt64" Name="bulk_node_ids" format="ascii">
2
3
26
27
28
29
30
31
32
33
34
35
36
37
38
39
40
41
42
43
44
45
46
47
48
49
50
51
52
53
54
55
56
57
58
59
60
61
62
63
64
65
66
67
68
69
70
71
72
73
74
75
76
77
78
79
80
81
82
83
84
85
86
87
88
89
90
91
92
93
94
95
96
97
98
99
100
101
102
103
104
105
106
107
108
109
110
111
112
113
114
115
116
117
118
119
120
121
122
123
124
125
126
127
128
129
130
131
132
133
134
135
136
137
138
139
140
141
142
143
144
145
146
147
148
149
150
151
152
153
154
155
156
157
158
159
160
161
162
163
164
165
166
167
168
169
170
171
172
173
174
175
176
177
178
179

</DataArray>
</PointData>
<CellData>
<DataArray type="UInt64" Name="bulk_elem_ids" format="ascii">
41464
28787
46077
28649
40873
28522
31059
28546
28465
31007
28454
24609
28442
24602
28434
24603
28430
31239
28448
31178
44903
28459
31012
28472
31230
28982
28491
31298
34028
28512
31414
41293
28531
31457
37372
28573
31328
29182
28618
43134
46538
28679
41096
46253
28720
31705
32198
28807
17634
29331
28884
30962
29284
28995
31223
29061
31368
29099
46006
18263
29279
31514
29371
31584
29476
32005
30330
30069
32209
30454
34210
30797
43978
30758
30816
34432
31508
30811
32536
45884
30808
41779
30800
32585
30826
32561
31231
30818
32570
30773
30807
32573
30780
30794
32571
30784
30796
32575
37615
30813
32577
30785
30799
32579
30786
30789
32805
39068
30824
32583
30819
32578
36350
30831
32572
30825
32568
30771
30810
32584
30832
46634
30722
30834
32586
30828
43742
30692
30801
32500
30657
32390
30535
32291
30400
32211
30295
30253
31523
29807
31790
29546
29185
31408
29143
31394
29117
38523
33320
28880
45238
28737
31150
28675
37855

</DataArray>
</CellData>
</Piece>
</UnstructuredGrid>
</VTKFile>
