<?xml version="1.0"?>
<VTKFile type="UnstructuredGrid" version="0.1" byte_order="LittleEndian">
<!--This file was created by meshio v4.3.11-->
<UnstructuredGrid>
<Piece NumberOfPoints="17127" NumberOfCells="33081">
<Points>
<DataArray type="Float64" Name="Points" NumberOfComponents="3" format="ascii">
1.05500000000e-03
0.00000000000e+00
0.00000000000e+00
1.00000000000e-01
0.00000000000e+00
0.00000000000e+00
0.00000000000e+00
1.00000000000e-01
0.00000000000e+00
0.00000000000e+00
1.05500000000e-03
0.00000000000e+00
1.05704990887e-03
0.00000000000e+00
0.00000000000e+00
1.05920594837e-03
0.00000000000e+00
0.00000000000e+00
1.06147361313e-03
0.00000000000e+00
0.00000000000e+00
1.06385868271e-03
0.00000000000e+00
0.00000000000e+00
1.06636723588e-03
0.00000000000e+00
0.00000000000e+00
1.06900566526e-03
0.00000000000e+00
0.00000000000e+00
1.07178069508e-03
0.00000000000e+00
0.00000000000e+00
1.07469939761e-03
0.00000000000e+00
0.00000000000e+00
1.07776921165e-03
0.00000000000e+00
0.00000000000e+00
1.08099796030e-03
0.00000000000e+00
0.00000000000e+00
1.08439387213e-03
0.00000000000e+00
0.00000000000e+00
1.08796560304e-03
0.00000000000e+00
0.00000000000e+00
1.09172225365e-03
0.00000000000e+00
0.00000000000e+00
1.09567339871e-03
0.00000000000e+00
0.00000000000e+00
1.09982910872e-03
0.00000000000e+00
0.00000000000e+00
1.10419997384e-03
0.00000000000e+00
0.00000000000e+00
1.10879713359e-03
0.00000000000e+00
0.00000000000e+00
1.11363230401e-03
0.00000000000e+00
0.00000000000e+00
1.11871780716e-03
0.00000000000e+00
0.00000000000e+00
1.12406660537e-03
0.00000000000e+00
0.00000000000e+00
1.12969232867e-03
0.00000000000e+00
0.00000000000e+00
1.13560931469e-03
0.00000000000e+00
0.00000000000e+00
1.14183264384e-03
0.00000000000e+00
0.00000000000e+00
1.14837817668e-03
0.00000000000e+00
0.00000000000e+00
1.15526259268e-03
0.00000000000e+00
0.00000000000e+00
1.16250344039e-03
0.00000000000e+00
0.00000000000e+00
1.17011916860e-03
0.00000000000e+00
0.00000000000e+00
1.17812919196e-03
0.00000000000e+00
0.00000000000e+00
1.18655392059e-03
0.00000000000e+00
0.00000000000e+00
1.19541482548e-03
0.00000000000e+00
0.00000000000e+00
1.20473449133e-03
0.00000000000e+00
0.00000000000e+00
1.21453666742e-03
0.00000000000e+00
0.00000000000e+00
1.22484633483e-03
0.00000000000e+00
0.00000000000e+00
1.23568977059e-03
0.00000000000e+00
0.00000000000e+00
1.24709460782e-03
0.00000000000e+00
0.00000000000e+00
1.25908991206e-03
0.00000000000e+00
0.00000000000e+00
1.27170625790e-03
0.00000000000e+00
0.00000000000e+00
1.28497578966e-03
0.00000000000e+00
0.00000000000e+00
1.29893233125e-03
0.00000000000e+00
0.00000000000e+00
1.31361145423e-03
0.00000000000e+00
0.00000000000e+00
1.32905056288e-03
0.00000000000e+00
0.00000000000e+00
1.34528900804e-03
0.00000000000e+00
0.00000000000e+00
1.36236817266e-03
0.00000000000e+00
0.00000000000e+00
1.38033158385e-03
0.00000000000e+00
0.00000000000e+00
1.39922502104e-03
0.00000000000e+00
0.00000000000e+00
1.41909664033e-03
0.00000000000e+00
0.00000000000e+00
1.43999707676e-03
0.00000000000e+00
0.00000000000e+00
1.46197960271e-03
0.00000000000e+00
0.00000000000e+00
1.48510023967e-03
0.00000000000e+00
0.00000000000e+00
1.50941791283e-03
0.00000000000e+00
0.00000000000e+00
1.53499459968e-03
0.00000000000e+00
0.00000000000e+00
1.56189546634e-03
0.00000000000e+00
0.00000000000e+00
1.59018909112e-03
0.00000000000e+00
0.00000000000e+00
1.61994757535e-03
0.00000000000e+00
0.00000000000e+00
1.65124675400e-03
0.00000000000e+00
0.00000000000e+00
1.68416639654e-03
0.00000000000e+00
0.00000000000e+00
1.71879040565e-03
0.00000000000e+00
0.00000000000e+00
1.75520701652e-03
0.00000000000e+00
0.00000000000e+00
1.79350904003e-03
0.00000000000e+00
0.00000000000e+00
1.83379409263e-03
0.00000000000e+00
0.00000000000e+00
1.87616483724e-03
0.00000000000e+00
0.00000000000e+00
1.92072926374e-03
0.00000000000e+00
0.00000000000e+00
1.96760094189e-03
0.00000000000e+00
0.00000000000e+00
2.01689932510e-03
0.00000000000e+00
0.00000000000e+00
2.06875006485e-03
0.00000000000e+00
0.00000000000e+00
2.12328528970e-03
0.00000000000e+00
0.00000000000e+00
2.18064398463e-03
0.00000000000e+00
0.00000000000e+00
2.24097233077e-03
0.00000000000e+00
0.00000000000e+00
2.30442409295e-03
0.00000000000e+00
0.00000000000e+00
2.37116095830e-03
0.00000000000e+00
0.00000000000e+00
2.44135302742e-03
0.00000000000e+00
0.00000000000e+00
2.51517919248e-03
0.00000000000e+00
0.00000000000e+00
2.59282757751e-03
0.00000000000e+00
0.00000000000e+00
2.67449608729e-03
0.00000000000e+00
0.00000000000e+00
2.76039285427e-03
0.00000000000e+00
0.00000000000e+00
2.85073679449e-03
0.00000000000e+00
0.00000000000e+00
2.94575814770e-03
0.00000000000e+00
0.00000000000e+00
3.04569907852e-03
0.00000000000e+00
0.00000000000e+00
3.15081432127e-03
0.00000000000e+00
0.00000000000e+00
3.26137170791e-03
0.00000000000e+00
0.00000000000e+00
3.37765303241e-03
0.00000000000e+00
0.00000000000e+00
3.49995464167e-03
0.00000000000e+00
0.00000000000e+00
3.62858822816e-03
0.00000000000e+00
0.00000000000e+00
3.76388162110e-03
0.00000000000e+00
0.00000000000e+00
3.90617958901e-03
0.00000000000e+00
0.00000000000e+00
4.05584484203e-03
0.00000000000e+00
0.00000000000e+00
4.21325876956e-03
0.00000000000e+00
0.00000000000e+00
4.37882253997e-03
0.00000000000e+00
0.00000000000e+00
4.55295813970e-03
0.00000000000e+00
0.00000000000e+00
4.73610932539e-03
0.00000000000e+00
0.00000000000e+00
4.92874287469e-03
0.00000000000e+00
0.00000000000e+00
5.13134971379e-03
0.00000000000e+00
0.00000000000e+00
5.34444622287e-03
0.00000000000e+00
0.00000000000e+00
5.56857549041e-03
0.00000000000e+00
0.00000000000e+00
5.80430864812e-03
0.00000000000e+00
0.00000000000e+00
6.05224649815e-03
0.00000000000e+00
0.00000000000e+00
6.31302100709e-03
0.00000000000e+00
0.00000000000e+00
6.58729666594e-03
0.00000000000e+00
0.00000000000e+00
6.87577252455e-03
0.00000000000e+00
0.00000000000e+00
7.17918376034e-03
0.00000000000e+00
0.00000000000e+00
7.49830363480e-03
0.00000000000e+00
0.00000000000e+00
7.83394541086e-03
0.00000000000e+00
0.00000000000e+00
8.18696456481e-03
0.00000000000e+00
0.00000000000e+00
8.55826071664e-03
0.00000000000e+00
0.00000000000e+00
8.94878014483e-03
0.00000000000e+00
0.00000000000e+00
9.35951815467e-03
0.00000000000e+00
0.00000000000e+00
9.79152141821e-03
0.00000000000e+00
0.00000000000e+00
1.02458909329e-02
0.00000000000e+00
0.00000000000e+00
1.07237846806e-02
0.00000000000e+00
0.00000000000e+00
1.12264207803e-02
0.00000000000e+00
0.00000000000e+00
1.17550799705e-02
0.00000000000e+00
0.00000000000e+00
1.23111096445e-02
0.00000000000e+00
0.00000000000e+00
1.28959269175e-02
0.00000000000e+00
0.00000000000e+00
1.35110221142e-02
0.00000000000e+00
0.00000000000e+00
1.41579630013e-02
0.00000000000e+00
0.00000000000e+00
1.48383981777e-02
0.00000000000e+00
0.00000000000e+00
1.55540618214e-02
0.00000000000e+00
0.00000000000e+00
1.63067777675e-02
0.00000000000e+00
0.00000000000e+00
1.70984645006e-02
0.00000000000e+00
0.00000000000e+00
1.79311397457e-02
0.00000000000e+00
0.00000000000e+00
1.88069251862e-02
0.00000000000e+00
0.00000000000e+00
1.97280528107e-02
0.00000000000e+00
0.00000000000e+00
2.06968708394e-02
0.00000000000e+00
0.00000000000e+00
2.17158475660e-02
0.00000000000e+00
0.00000000000e+00
2.27875803936e-02
0.00000000000e+00
0.00000000000e+00
2.39148003931e-02
0.00000000000e+00
0.00000000000e+00
2.51003804889e-02
0.00000000000e+00
0.00000000000e+00
2.63473419809e-02
0.00000000000e+00
0.00000000000e+00
2.76588631517e-02
0.00000000000e+00
0.00000000000e+00
2.90382862042e-02
0.00000000000e+00
0.00000000000e+00
3.04891266061e-02
0.00000000000e+00
0.00000000000e+00
3.20150821750e-02
0.00000000000e+00
0.00000000000e+00
3.36200415808e-02
0.00000000000e+00
0.00000000000e+00
3.53080952319e-02
0.00000000000e+00
0.00000000000e+00
3.70835451982e-02
0.00000000000e+00
0.00000000000e+00
3.89509166369e-02
0.00000000000e+00
0.00000000000e+00
4.09149676814e-02
0.00000000000e+00
0.00000000000e+00
4.29807046679e-02
0.00000000000e+00
0.00000000000e+00
4.51533917536e-02
0.00000000000e+00
0.00000000000e+00
4.74385666703e-02
0.00000000000e+00
0.00000000000e+00
4.98420526847e-02
0.00000000000e+00
0.00000000000e+00
5.23699754998e-02
0.00000000000e+00
0.00000000000e+00
5.50287774087e-02
0.00000000000e+00
0.00000000000e+00
5.78252345762e-02
0.00000000000e+00
0.00000000000e+00
6.07664740417e-02
0.00000000000e+00
0.00000000000e+00
6.38599914213e-02
0.00000000000e+00
0.00000000000e+00
6.71136717741e-02
0.00000000000e+00
0.00000000000e+00
7.05358051212e-02
0.00000000000e+00
0.00000000000e+00
7.41351142123e-02
0.00000000000e+00
0.00000000000e+00
7.79207711439e-02
0.00000000000e+00
0.00000000000e+00
8.19024258232e-02
0.00000000000e+00
0.00000000000e+00
8.60902238549e-02
0.00000000000e+00
0.00000000000e+00
9.04948388761e-02
0.00000000000e+00
0.00000000000e+00
9.51274954180e-02
0.00000000000e+00
0.00000000000e+00
0.00000000000e+00
9.51274954181e-02
0.00000000000e+00
0.00000000000e+00
9.04948388761e-02
0.00000000000e+00
0.00000000000e+00
8.60902238550e-02
0.00000000000e+00
0.00000000000e+00
8.19024258234e-02
0.00000000000e+00
0.00000000000e+00
7.79207711441e-02
0.00000000000e+00
0.00000000000e+00
7.41351142125e-02
0.00000000000e+00
0.00000000000e+00
7.05358051214e-02
0.00000000000e+00
0.00000000000e+00
6.71136717744e-02
0.00000000000e+00
0.00000000000e+00
6.38599914216e-02
0.00000000000e+00
0.00000000000e+00
6.07664740420e-02
0.00000000000e+00
0.00000000000e+00
5.78252345765e-02
0.00000000000e+00
0.00000000000e+00
5.50287774090e-02
0.00000000000e+00
0.00000000000e+00
5.23699755001e-02
0.00000000000e+00
0.00000000000e+00
4.98420526850e-02
0.00000000000e+00
0.00000000000e+00
4.74385666706e-02
0.00000000000e+00
0.00000000000e+00
4.51533917538e-02
0.00000000000e+00
0.00000000000e+00
4.29807046682e-02
0.00000000000e+00
0.00000000000e+00
4.09149676817e-02
0.00000000000e+00
0.00000000000e+00
3.89509166371e-02
0.00000000000e+00
0.00000000000e+00
3.70835451984e-02
0.00000000000e+00
0.00000000000e+00
3.53080952321e-02
0.00000000000e+00
0.00000000000e+00
[...]
<PointData>
<DataArray type="UInt64" Name="bulk_node_ids" format="ascii">
2
3
4
5
26
27
28
29
30
31
32
33
34
35
36
37
38
39
40
41
42
43
44
45
46
47
48
49
50
51
52
53
54
55
56
57
58
59
60
61
62
63
64
65
66
67
68
69
70
71
72
73
74
75
76
77
78
79
80
81
82
83
84
85
86
87
88
89
90
91
92
93
94
95
96
97
98
99
100
101
102
103
104
105
106
107
108
109
110
111
112
113
114
115
116
117
118
119
120
121
122
123
124
125
126
127
128
129
130
131
132
133
134
135
136
137
138
139
140
141
142
143
144
145
146
147
148
149
150
151
152
153
154
155
156
157
158
159
160
161
162
163
164
165
166
167
168
169
170
171
172
173
174
175
176
177
178
179
180
181
182
183
184
185
186
187
188
189
190
191
192
193
194
195
196
197
198
199
200
201
202
203
204
205
206
207
208
209
210
211
212
213
214
215
216
217
218
219
220
221
222
223
224
225
226
227
228
229
230
231
232
233
234
235
236
237
238
239
240
241
242
243
244
245
246
247
248
249
250
251
252
253
254
255
256
257
258
259
260
261
262
263
264
265
266
267
268
269
270
271
272
273
274
275
276
277
278
279
280
281
282
283
284
285
286
287
288
289
290
291
292
293
294
295
296
297
298
299
300
301
302
303
304
305
306
307
308
309
310
311
312
313
314
315
316
317
318
319
320
321
322
323
324
325
326
327
328
329
330
331
332
333
1177
1178
1179
1180
1181
1182
1183
1184
1185
1186
1187
1188
1189
1190
1191
1192
1193
1194
1195
1196
1197
1198
1199
1200
1201
1202
1203
1204
1205
1206
1207
1208
1209
1210
1211
1212
1213
1214
1215
1216
1217
1218
1219
1220
1221
1222
1223
1224
1225
1226
1227
1228
1229
1230
1231
1232
1233
1234
1235
1236
1237
1238
1239
1240
1241
1242
1243
1244
1245
1246
1247
1248
1249
1250
1251
1252
1253
1254
1255
1256
1257
1258
1259
1260
1261
1262
1263
1264
1265
1266
1267
1268
1269
1270
1271
1272
1273
1274
1275
1276
1277
1278
1279
1280
1281
1282
1283
1284
1285
1286
1287
1288
1289
1290
1291
1292
1293
1294
1295
1296
1297
1298
1299
1300
1301
1302
1303
1304
1305
1306
1307
1308
1309
1310
1311
1312
1313
1314
1315
1316
1317
1318
1319
1320
1321
1322
1323
1324
1325
1326
1327
1328
1329
1330
1331
1332
1333
1334
1335
1336
1337
1338
1339
1340
1341
1342
1343
1344
1345
1346
1347
1348
1349
1350
1351
1352
1353
1354
1355
1356
1357
1358
1359
1360
1361
1362
1363
1364
1365
1366
1367
1368
1369
1370
1371
1372
1373
1374
1375
1376
1377
1378
1379
1380
1381
1382
1383
1384
1385
1386
1387
1388
1389
1390
1391
1392
1393
1394
1395
1396
1397
1398
1399
1400
1401
1402
1403
1404
1405
1406
1407
1408
1409
1410
1411
1412
1413
1414
1415
1416
1417
1418
1419
1420
1421
1422
1423
1424
1425
1426
1427
1428
1429
1430
1431
1432
1433
1434
1435
1436
1437
1438
1439
1440
1441
1442
1443
1444
1445
1446
1447
1448
1449
1450
1451
1452
1453
1454
1455
1456
1457
1458
1459
1460
1461
1462
1463
1464
1465
1466
1467
1468
1469
1470
1471
1472
1473
1474
1475
1476
1477
1478
1479
1480
1481
1482
1483
1484
1485
1486
1487
1488
1489
1490
1491
1492
1493
1494
1495
1496
1497
1498
1499
1500
1501
1502
1503
1504
1505
1506
1507
1508
1509
1510
1511
1512
1513
1514
1515
1516
1517
1518
1519
1520
1521
1522
1523
1524
1525
1526
1527
1528
1529
1530
1531
1532
1533
1534
1535
1536
1537
1538
1539
1540
1541
1542
1543
1544
1545
1546
1547
1548
1549
1550
1551
1552
1553
1554
1555
1556
1557
1558
1559
1560
1561
1562
1563
1564
1565
1566
1567
1568
1569
1570
1571
1572
1573
1574
1575
1576
1577
1578
1579
1580
1581
1582
1583
1584
1585
1586
1587
1588
1589
1590
1591
1592
1593
1594
1595
1596
1597
1598
1599
1600
1601
1602
1603
1604
1605
1606
1607
1608
1609
1610
1611
1612
1613
1614
1615
1616
1617
1618
1619
1620
1621
1622
1623
1624
1625
1626
1627
1628
1629
1630
1631
1632
1633
1634
1635
1636
1637
1638
1639
1640
1641
1642
1643
1644
1645
1646
1647
1648
1649
1650
1651
1652
1653
1654
1655
1656
1657
1658
1659
1660
1661
1662
1663
1664
1665
1666
1667
1668
1669
1670
1671
1672
1673
1674
1675
1676
1677
1678
1679
1680
1681
1682
1683
1684
1685
1686
1687
1688
1689
1690
1691
1692
1693
1694
1695
1696
1697
1698
1699
1700
1701
1702
1703
1704
1705
1706
1707
1708
1709
1710
1711
1712
1713
1714
1715
1716
1717
1718
1719
1720
1721
1722
1723
1724
1725
1726
1727
1728
1729
1730
1731
1732
1733
1734
1735
1736
1737
1738
1739
1740
1741
1742
1743
1744
1745
1746
1747
1748
1749
1750
1751
1752
1753
1754
1755
1756
1757
1758
1759
1760
1761
1762
1763
1764
1765
1766
1767
1768
1769
1770
1771
1772
1773
1774
1775
1776
1777
1778
1779
1780
1781
1782
1783
1784
1785
1786
1787
1788
1789
1790
1791
1792
1793
1794
1795
1796
1797
1798
1799
1800
1801
1802
1803
1804
1805
1806
1807
1808
1809
1810
1811
1812
1813
1814
1815
1816
1817
1818
1819
1820
1821
1822
1823
1824
1825
1826
1827
1828
1829
1830
1831
1832
1833
1834
1835
1836
1837
1838
1839
1840
1841
1842
1843
1844
1845
1846
1847
1848
1849
1850
1851
1852
1853
1854
1855
1856
1857
1858
1859
1860
1861
1862
1863
1864
1865
1866
1867
1868
1869
1870
1871
1872
1873
1874
1875
1876
1877
1878
1879
1880
1881
1882
1883
1884
1885
1886
1887
1888
1889
1890
1891
1892
1893
1894
1895
1896
1897
1898
1899
1900
1901
1902
1903
1904
1905
1906
1907
1908
1909
1910
1911
1912
1913
1914
1915
1916
1917
1918
1919
1920
1921
1922
1923
1924
1925
1926
1927
1928
1929
1930
1931
1932
1933
1934
1935
1936
1937
1938
1939
1940
1941
1942
1943
1944
1945
1946
1947
1948
1949
1950
1951
1952
1953
1954
1955
1956
1957
1958
1959
1960
1961
1962
1963
1964
1965
1966
1967
1968
1969
1970
1971
1972
1973
1974
1975
1976
1977
1978
1979
1980
1981
1982
1983
1984
1985
1986
1987
1988
1989
1990
1991
1992
1993
1994
1995
1996
1997
1998
1999
2000
2001
2002
2003
2004
2005
2006
2007
2008
2009
2010
2011
2012
2013
2014
2015
2016
2017
2018
2019
2020
2021
2022
2023
2024
2025
2026
2027
2028
2029
2030
2031
2032
2033
2034
2035
8848
8849
8850
8851
8852
8853
8854
8855
8856
8857
8858
8859
8860
8861
8862
8863
8864
8865
8866
8867
8868
8869
8870
8871
8872
8873
8874
8875
8876
8877
8878
8879
8880
8881
8882
8883
8884
8885
8886
8887
8888
8889
8890
8891
8892
8893
8894
8895
8896
8897
8898
8899
8900
8901
8902
8903
8904
8905
8906
8907
8908
8909
8910
8911
8912
8913
8914
8915
8916
8917
8918
8919
8920
8921
8922
8923
8924
8925
8926
8927
8928
8929
8930
8931
8932
8933
8934
8935
8936
8937
8938
8939
8940
8941
8942
8943
8944
8945
8946
8947
8948
8949
8950
8951
8952
8953
8954
8955
8956
8957
8958
8959
8960
8961
8962
8963
8964
8965
8966
8967
8968
8969
8970
8971
8972
8973
8974
8975
8976
8977
8978
8979
8980
8981
8982
8983
8984
8985
8986
8987
8988
8989
8990
8991
8992
8993
8994
8995
8996
8997
8998
8999
9000
9001
9002
9003
9004
9005
9006
9007
9008
9009
9010
9011
9012
9013
9014
9015
9016
9017
9018
9019
9020
9021
9022
9023
9024
9025
9026
9027
9028
9029
9030
9031
9032
9033
9034
9035
9036
9037
9038
9039
9040
9041
9042
9043
9044
9045
9046
9047
9048
9049
9050
9051
9052
9053
9054
9055
9056
9057
9058
9059
9060
9061
9062
9063
9064
9065
9066
9067
9068
9069
9070
9071
9072
9073
9074
9075
9076
9077
9078
9079
9080
9081
9082
9083
9084
9085
9086
9087
9088
9089
9090
9091
9092
9093
9094
9095
9096
9097
9098
9099
9100
9101
9102
9103
9104
9105
9106
9107
9108
9109
9110
9111
9112
9113
9114
9115
9116
9117
9118
9119
9120
9121
9122
9123
9124
9125
9126
9127
9128
9129
9130
9131
9132
9133
9134
9135
9136
9137
9138
9139
9140
9141
9142
9143
9144
9145
9146
9147
9148
9149
9150
9151
9152
9153
9154
9155
9156
9157
9158
9159
9160
9161
9162
9163
9164
9165
9166
9167
9168
9169
9170
9171
9172
9173
9174
9175
9176
9177
9178
9179
9180
9181
9182
9183
9184
9185
9186
9187
9188
9189
9190
9191
9192
9193
9194
9195
9196
9197
9198
9199
9200
9201
9202
9203
9204
9205
9206
9207
9208
9209
9210
9211
9212
9213
9214
9215
9216
9217
9218
9219
9220
9221
9222
9223
9224
9225
9226
9227
9228
9229
9230
9231
9232
9233
9234
9235
9236
9237
9238
9239
9240
9241
9242
9243
9244
9245
9246
9247
9248
9249
9250
9251
9252
9253
9254
9255
9256
9257
9258
9259
9260
9261
9262
9263
9264
9265
9266
9267
9268
9269
9270
9271
9272
9273
9274
9275
9276
9277
9278
9279
9280
9281
9282
9283
9284
9285
9286
9287
9288
9289
9290
9291
9292
9293
9294
9295
9296
9297
9298
9299
9300
9301
9302
9303
9304
9305
9306
9307
9308
9309
9310
9311
9312
9313
9314
9315
9316
9317
9318
9319
9320
9321
9322
9323
9324
9325
9326
9327
9328
9329
9330
9331
9332
9333
9334
9335
9336
9337
9338
9339
9340
9341
9342
9343
9344
9345
9346
9347
9348
9349
9350
9351
9352
9353
9354
9355
9356
9357
9358
9359
9360
9361
9362
9363
9364
9365
9366
9367
9368
9369
9370
9371
9372
9373
9374
9375
9376
9377
9378
9379
9380
9381
9382
9383
9384
9385
9386
9387
9388
9389
9390
9391
9392
9393
9394
9395
9396
9397
9398
9399
9400
9401
9402
9403
9404
9405
9406
9407
9408
9409
9410
9411
9412
9413
9414
9415
9416
9417
9418
9419
9420
9421
9422
9423
9424
9425
9426
9427
9428
9429
9430
9431
9432
9433
9434
9435
9436
9437
9438
9439
9440
9441
9442
9443
9444
9445
9446
9447
9448
9449
9450
9451
9452
9453
9454
9455
9456
9457
9458
9459
9460
9461
9462
9463
9464
9465
9466
9467
9468
9469
9470
9471
9472
9473
9474
9475
9476
9477
9478
9479
9480
9481
9482
9483
9484
9485
9486
9487
9488
9489
9490
9491
9492
9493
9494
9495
9496
9497
9498
9499
9500
9501
9502
9503
9504
9505
9506
9507
9508
9509
9510
9511
9512
9513
9514
9515
9516
9517
9518
9519
9520
9521
9522
9523
9524
9525
9526
9527
9528
9529
9530
9531
9532
9533
9534
9535
9536
9537
9538
9539
9540
9541
9542
9543
9544
9545
9546
9547
9548
9549
9550
9551
9552
9553
9554
9555
9556
9557
9558
9559
9560
9561
9562
9563
9564
9565
9566
9567
9568
9569
9570
9571
9572
9573
9574
9575
9576
9577
9578
9579
9580
9581
9582
9583
9584
9585
9586
9587
9588
9589
9590
9591
9592
9593
9594
9595
9596
9597
9598
9599
9600
9601
9602
9603
9604
9605
9606
9607
9608
9609
9610
9611
9612
9613
9614
9615
9616
9617
9618
9619
9620
9621
9622
9623
9624
9625
9626
9627
9628
9629
9630
9631
9632
9633
9634
9635
9636
9637
9638
9639
9640
9641
9642
9643
9644
9645
9646
9647
9648
9649
9650
9651
9652
9653
9654
9655
9656
9657
9658
9659
9660
9661
9662
9663
9664
9665
9666
9667
9668
9669
9670
9671
9672
9673
9674
9675
9676
9677
9678
9679
9680
9681
9682
9683
9684
9685
9686
9687
9688
9689
9690
9691
9692
9693
9694
9695
9696
9697
9698
9699
9700
9701
9702
9703
9704
9705
9706
9707
9708
9709
9710
9711
9712
9713
9714
9715
9716
9717
9718
9719
9720
9721
9722
9723
9724
9725
9726
9727
9728
9729
9730
9731
9732
9733
9734
9735
9736
9737
9738
9739
9740
9741
9742
9743
9744
9745
9746
9747
9748
9749
9750
9751
9752
9753
9754
9755
9756
9757
9758
9759
9760
9761
9762
9763
9764
9765
9766
9767
9768
9769
9770
9771
9772
9773
9774
9775
9776
9777
9778
9779
9780
9781
9782
9783
9784
9785
9786
9787
9788
9789
9790
9791
9792
9793
9794
9795
9796
9797
9798
9799
9800
9801
9802
9803
9804
9805
9806
9807
9808
9809
9810
9811
9812
9813
9814
9815
9816
9817
9818
9819
9820
9821
9822
9823
9824
9825
9826
9827
9828
9829
9830
9831
9832
9833
9834
9835
9836
9837
9838
9839
9840
9841
9842
9843
9844
9845
9846
9847
9848
9849
9850
9851
9852
9853
9854
9855
9856
9857
9858
9859
9860
9861
9862
9863
9864
9865
9866
9867
9868
9869
9870
9871
9872
9873
9874
9875
9876
9877
9878
9879
9880
9881
9882
9883
9884
9885
9886
9887
9888
9889
9890
9891
9892
9893
9894
9895
9896
9897
9898
9899
9900
9901
9902
9903
9904
9905
9906
9907
9908
9909
9910
9911
9912
9913
9914
9915
9916
9917
9918
9919
9920
9921
9922
9923
9924
9925
9926
9927
9928
9929
9930
9931
9932
9933
9934
9935
9936
9937
9938
9939
9940
9941
9942
9943
9944
9945
9946
9947
9948
9949
9950
9951
9952
9953
9954
9955
9956
9957
9958
9959
9960
9961
9962
9963
9964
9965
9966
9967
9968
9969
9970
9971
9972
9973
9974
9975
9976
9977
9978
9979
9980
9981
9982
9983
9984
9985
9986
9987
9988
9989
9990
9991
9992
9993
9994
9995
9996
9997
9998
9999
10000
10001
10002
10003
10004
10005
10006
10007
10008
10009
10010
10011
10012
10013
10014
10015
10016
10017
10018
10019
10020
10021
10022
10023
10024
10025
10026
10027
10028
10029
10030
10031
10032
10033
10034
10035
10036
10037
10038
10039
10040
10041
10042
10043
10044
10045
10046
10047
10048
10049
10050
10051
10052
10053
10054
10055
10056
10057
10058
10059
10060
10061
10062
10063
10064
10065
10066
10067
10068
10069
10070
10071
10072
10073
10074
10075
10076
10077
10078
10079
10080
10081
10082
10083
10084
10085
10086
10087
10088
10089
10090
10091
10092
10093
10094
10095
10096
10097
10098
10099
10100
10101
10102
10103
10104
10105
10106
10107
10108
10109
10110
10111
10112
10113
10114
10115
10116
10117
10118
10119
10120
10121
10122
10123
10124
10125
10126
10127
10128
10129
10130
10131
10132
10133
10134
10135
10136
10137
10138
10139
10140
10141
10142
10143
10144
10145
10146
10147
10148
10149
10150
10151
10152
10153
10154
10155
10156
10157
10158
10159
10160
10161
10162
10163
10164
10165
10166
10167
10168
10169
10170
10171
10172
10173
10174
10175
10176
10177
10178
10179
10180
10181
10182
10183
10184
10185
10186
10187
10188
10189
10190
10191
10192
10193
10194
10195
10196
10197
10198
10199
10200
10201
10202
10203
10204
10205
10206
10207
10208
10209
10210
10211
10212
10213
10214
10215
10216
10217
10218
10219
10220
10221
10222
10223
10224
10225
10226
10227
10228
10229
10230
10231
10232
10233
10234
10235
10236
10237
10238
10239
10240
10241
10242
10243
10244
10245
10246
10247
10248
10249
10250
10251
10252
10253
10254
10255
10256
10257
10258
10259
10260
10261
10262
10263
10264
10265
10266
10267
10268
10269
10270
10271
10272
10273
10274
10275
10276
10277
10278
10279
10280
10281
10282
10283
10284
10285
10286
10287
10288
10289
10290
10291
10292
10293
10294
10295
10296
10297
10298
10299
10300
10301
10302
10303
10304
10305
10306
10307
10308
10309
10310
10311
10312
10313
10314
10315
10316
10317
10318
10319
10320
10321
10322
10323
10324
10325
10326
10327
10328
10329
10330
10331
10332
10333
10334
10335
10336
10337
10338
10339
10340
10341
10342
10343
10344
10345
10346
10347
10348
10349
10350
10351
10352
10353
10354
10355
10356
10357
10358
10359
10360
10361
10362
10363
10364
10365
10366
10367
10368
10369
10370
10371
10372
10373
10374
10375
10376
10377
10378
10379
10380
10381
10382
10383
10384
10385
10386
10387
10388
10389
10390
10391
10392
10393
10394
10395
10396
10397
10398
10399
10400
10401
10402
10403
10404
10405
10406
10407
10408
10409
10410
10411
10412
10413
10414
10415
10416
10417
10418
10419
10420
10421
10422
10423
10424
10425
10426
10427
10428
10429
10430
10431
10432
10433
10434
10435
10436
10437
10438
10439
10440
10441
10442
10443
10444
10445
10446
10447
10448
10449
10450
10451
10452
10453
10454
10455
10456
10457
10458
10459
10460
10461
10462
10463
10464
10465
10466
10467
10468
10469
10470
10471
10472
10473
10474
10475
10476
10477
10478
10479
10480
10481
10482
10483
10484
10485
10486
10487
10488
10489
10490
10491
10492
10493
10494
10495
10496
10497
10498
10499
10500
10501
10502
10503
10504
10505
10506
10507
10508
10509
10510
10511
10512
10513
10514
10515
10516
10517
10518
10519
10520
10521
10522
10523
10524
10525
10526
10527
10528
10529
10530
10531
10532
10533
10534
10535
10536
10537
10538
10539
10540
10541
10542
10543
10544
10545
10546
10547
10548
10549
10550
10551
10552
10553
10554
10555
10556
10557
10558
10559
10560
10561
10562
10563
10564
10565
10566
10567
10568
10569
10570
10571
10572
10573
10574
10575
10576
10577
10578
10579
10580
10581
10582
10583
10584
10585
10586
10587
10588
10589
10590
10591
10592
10593
10594
10595
10596
10597
10598
10599
10600
10601
10602
10603
10604
10605
10606
10607
10608
10609
10610
10611
10612
10613
10614
10615
10616
10617
10618
10619
10620
10621
10622
10623
10624
10625
10626
10627
10628
10629
10630
10631
10632
10633
10634
10635
10636
10637
10638
10639
10640
10641
10642
10643
10644
10645
10646
10647
10648
10649
10650
10651
10652
10653
10654
10655
10656
10657
10658
10659
10660
10661
10662
10663
10664
10665
10666
10667
10668
10669
10670
10671
10672
10673
10674
10675
10676
10677
10678
10679
10680
10681
10682
10683
10684
10685
10686
10687
10688
10689
10690
10691
10692
10693
10694
10695
10696
10697
10698
10699
10700
10701
10702
10703
10704
10705
10706
10707
10708
10709
10710
10711
10712
10713
10714
10715
10716
10717
10718
10719
10720
10721
10722
10723
10724
10725
10726
10727
10728
10729
10730
10731
10732
10733
10734
10735
10736
10737
10738
10739
10740
10741
10742
10743
10744
10745
10746
10747
10748
10749
10750
10751
10752
10753
10754
10755
10756
10757
10758
10759
10760
10761
10762
10763
10764
10765
10766
10767
10768
10769
10770
10771
10772
10773
10774
10775
10776
10777
10778
10779
10780
10781
10782
10783
10784
10785
10786
10787
10788
10789
10790
10791
10792
10793
10794
10795
10796
10797
10798
10799
10800
10801
10802
10803
10804
10805
10806
10807
10808
10809
10810
10811
10812
10813
10814
10815
10816
10817
10818
10819
10820
10821
10822
10823
10824
10825
10826
10827
10828
10829
10830
10831
10832
10833
10834
10835
10836
10837
10838
10839
10840
10841
10842
10843
10844
10845
10846
10847
10848
10849
10850
10851
10852
10853
10854
10855
10856
10857
10858
10859
10860
10861
10862
10863
10864
10865
10866
10867
10868
10869
10870
10871
10872
10873
10874
10875
10876
10877
10878
10879
10880
10881
10882
10883
10884
10885
10886
10887
10888
10889
10890
10891
10892
10893
10894
10895
10896
10897
10898
10899
10900
10901
10902
10903
10904
10905
10906
10907
10908
10909
10910
10911
10912
10913
10914
10915
10916
10917
10918
10919
10920
10921
10922
10923
10924
10925
10926
10927
10928
10929
10930
10931
10932
10933
10934
10935
10936
10937
10938
10939
10940
10941
10942
10943
10944
10945
10946
10947
10948
10949
10950
10951
10952
10953
10954
10955
10956
10957
10958
10959
10960
10961
10962
10963
10964
10965
10966
10967
10968
10969
10970
10971
10972
10973
10974
10975
10976
10977
10978
10979
10980
10981
10982
10983
10984
10985
10986
10987
10988
10989
10990
10991
10992
10993
10994
10995
10996
10997
10998
10999
11000
11001
11002
11003
11004
11005
11006
11007
11008
11009
11010
11011
11012
11013
11014
11015
11016
11017
11018
11019
11020
11021
11022
11023
11024
11025
11026
11027
11028
11029
11030
11031
11032
11033
11034
11035
11036
11037
11038
11039
11040
11041
11042
11043
11044
11045
11046
11047
11048
11049
11050
11051
11052
11053
11054
11055
11056
11057
11058
11059
11060
11061
11062
11063
11064
11065
11066
11067
11068
11069
11070
11071
11072
11073
11074
11075
11076
11077
11078
11079
11080
11081
11082
11083
11084
11085
11086
11087
11088
11089
11090
11091
11092
11093
11094
11095
11096
11097
11098
11099
11100
11101
11102
11103
11104
11105
11106
11107
11108
11109
11110
11111
11112
11113
11114
11115
11116
11117
11118
11119
11120
11121
11122
11123
11124
11125
11126
11127
11128
11129
11130
11131
11132
11133
11134
11135
11136
11137
11138
11139
11140
11141
11142
11143
11144
11145
11146
11147
11148
11149
11150
11151
11152
11153
11154
11155
11156
11157
11158
11159
11160
11161
11162
11163
11164
11165
11166
11167
11168
11169
11170
11171
11172
11173
11174
11175
11176
11177
11178
11179
11180
11181
11182
11183
11184
11185
11186
11187
11188
11189
11190
11191
11192
11193
11194
11195
11196
11197
11198
11199
11200
11201
11202
11203
11204
11205
11206
11207
11208
11209
11210
11211
11212
11213
11214
11215
11216
11217
11218
11219
11220
11221
11222
11223
11224
11225
11226
11227
11228
11229
11230
11231
11232
11233
11234
11235
11236
11237
11238
11239
11240
11241
11242
11243
11244
11245
11246
11247
11248
11249
11250
11251
11252
11253
11254
11255
11256
11257
11258
11259
11260
11261
11262
11263
11264
11265
11266
11267
11268
11269
11270
11271
11272
11273
11274
11275
11276
11277
11278
11279
11280
11281
11282
11283
11284
11285
11286
11287
11288
11289
11290
11291
11292
11293
11294
11295
11296
11297
11298
11299
11300
11301
11302
11303
11304
11305
11306
11307
11308
11309
11310
11311
11312
11313
11314
11315
11316
11317
11318
11319
11320
11321
11322
11323
11324
11325
11326
11327
11328
11329
11330
11331
11332
11333
11334
11335
11336
11337
11338
11339
11340
11341
11342
11343
11344
11345
11346
11347
11348
11349
11350
11351
11352
11353
11354
11355
11356
11357
11358
11359
11360
11361
11362
11363
11364
11365
11366
11367
11368
11369
11370
11371
11372
11373
11374
11375
11376
11377
11378
11379
11380
11381
11382
11383
11384
11385
11386
11387
11388
11389
11390
11391
11392
11393
11394
11395
11396
11397
11398
11399
11400
11401
11402
11403
11404
11405
11406
11407
11408
11409
11410
11411
11412
11413
11414
11415
11416
11417
11418
11419
11420
11421
11422
11423
11424
11425
11426
11427
11428
11429
11430
11431
11432
11433
11434
11435
11436
11437
11438
11439
11440
11441
11442
11443
11444
11445
11446
11447
11448
11449