<?xml version="1.0"?>
<VTKFile type="UnstructuredGrid" version="0.1" byte_order="LittleEndian">
<!--This file was created by meshio v4.3.11-->
<UnstructuredGrid>
<Piece NumberOfPoints="830" NumberOfCells="829">
<Points>
<DataArray type="Float64" Name="Points" NumberOfComponents="3" format="ascii">
1.05500000000e-03
0.00000000000e+00
0.00000000000e+00
0.00000000000e+00
1.05500000000e-03
0.00000000000e+00
1.05499810612e-03
1.99902187871e-06
0.00000000000e+00
1.05499242448e-03
3.99803658034e-06
0.00000000000e+00
1.05498295510e-03
5.99703692782e-06
0.00000000000e+00
1.05496969802e-03
7.99601574414e-06
0.00000000000e+00
1.05495265328e-03
9.99496585239e-06
0.00000000000e+00
1.05493182094e-03
1.19938800757e-05
0.00000000000e+00
1.05490720109e-03
1.39927512374e-05
0.00000000000e+00
1.05487879381e-03
1.59915721610e-05
0.00000000000e+00
1.05484659919e-03
1.79903356701e-05
0.00000000000e+00
1.05481061736e-03
1.99890345884e-05
0.00000000000e+00
1.05477084845e-03
2.19876617402e-05
0.00000000000e+00
1.05472729259e-03
2.39862099497e-05
0.00000000000e+00
1.05467994995e-03
2.59846720416e-05
0.00000000000e+00
1.05462882069e-03
2.79830408408e-05
0.00000000000e+00
1.05457390500e-03
2.99813091725e-05
0.00000000000e+00
1.05451520307e-03
3.19794698624e-05
0.00000000000e+00
1.05445271512e-03
3.39775157362e-05
0.00000000000e+00
1.05438644137e-03
3.59754396206e-05
0.00000000000e+00
1.05431638206e-03
3.79732343424e-05
0.00000000000e+00
1.05424253743e-03
3.99708927289e-05
0.00000000000e+00
1.05416490776e-03
4.19684076079e-05
0.00000000000e+00
1.05408349333e-03
4.39657718078e-05
0.00000000000e+00
1.05399829442e-03
4.59629781576e-05
0.00000000000e+00
1.05390931134e-03
4.79600194867e-05
0.00000000000e+00
1.05381654441e-03
4.99568886250e-05
0.00000000000e+00
1.05371999397e-03
5.19535784031e-05
0.00000000000e+00
1.05361966036e-03
5.39500816519e-05
0.00000000000e+00
1.05351554393e-03
5.59463912035e-05
0.00000000000e+00
1.05340764508e-03
5.79424998907e-05
0.00000000000e+00
1.05329596417e-03
5.99384005469e-05
0.00000000000e+00
1.05318050162e-03
6.19340860064e-05
0.00000000000e+00
1.05306125783e-03
6.39295491046e-05
0.00000000000e+00
1.05293823324e-03
6.59247826770e-05
0.00000000000e+00
1.05281142829e-03
6.79197795601e-05
0.00000000000e+00
1.05268084343e-03
6.99145325909e-05
0.00000000000e+00
1.05254647914e-03
7.19090346075e-05
0.00000000000e+00
1.05240833588e-03
7.39032784490e-05
0.00000000000e+00
1.05226641417e-03
7.58972569557e-05
0.00000000000e+00
1.05212071450e-03
7.78909629684e-05
0.00000000000e+00
1.05197123741e-03
7.98843893287e-05
0.00000000000e+00
1.05181798343e-03
8.18775288801e-05
0.00000000000e+00
1.05166095311e-03
8.38703744668e-05
0.00000000000e+00
1.05150014701e-03
8.58629189329e-05
0.00000000000e+00
1.05133556571e-03
8.78551551255e-05
0.00000000000e+00
1.05116720980e-03
8.98470758919e-05
0.00000000000e+00
1.05099507989e-03
9.18386740809e-05
0.00000000000e+00
1.05081917659e-03
9.38299425418e-05
0.00000000000e+00
1.05063950053e-03
9.58208741258e-05
0.00000000000e+00
1.05045605237e-03
9.78114616844e-05
0.00000000000e+00
1.05026883276e-03
9.98016980712e-05
0.00000000000e+00
1.05007784237e-03
1.01791576140e-04
0.00000000000e+00
1.04988308188e-03
1.03781088746e-04
0.00000000000e+00
1.04968455200e-03
1.05770228747e-04
0.00000000000e+00
1.04948225344e-03
1.07758989002e-04
0.00000000000e+00
1.04927618693e-03
1.09747362371e-04
0.00000000000e+00
1.04906635320e-03
1.11735341715e-04
0.00000000000e+00
1.04885275301e-03
1.13722919895e-04
0.00000000000e+00
1.04863538712e-03
1.15710089776e-04
0.00000000000e+00
1.04841425632e-03
1.17696844223e-04
0.00000000000e+00
1.04818936140e-03
1.19683176104e-04
0.00000000000e+00
1.04796070317e-03
1.21669078286e-04
0.00000000000e+00
1.04772828245e-03
1.23654543639e-04
0.00000000000e+00
1.04749210006e-03
1.25639565036e-04
0.00000000000e+00
1.04725215687e-03
1.27624135351e-04
0.00000000000e+00
1.04700845373e-03
1.29608247456e-04
0.00000000000e+00
1.04676099152e-03
1.31591894228e-04
0.00000000000e+00
1.04650977113e-03
1.33575068547e-04
0.00000000000e+00
1.04625479345e-03
1.35557763290e-04
0.00000000000e+00
1.04599605940e-03
1.37539971340e-04
0.00000000000e+00
1.04573356992e-03
1.39521685582e-04
0.00000000000e+00
1.04546732594e-03
1.41502898899e-04
0.00000000000e+00
1.04519732842e-03
1.43483604180e-04
0.00000000000e+00
1.04492357833e-03
1.45463794311e-04
0.00000000000e+00
1.04464607665e-03
1.47443462182e-04
0.00000000000e+00
1.04436482438e-03
1.49422600688e-04
0.00000000000e+00
1.04407982253e-03
1.51401202723e-04
0.00000000000e+00
1.04379107212e-03
1.53379261182e-04
0.00000000000e+00
1.04349857419e-03
1.55356768962e-04
0.00000000000e+00
1.04320232979e-03
1.57333718966e-04
0.00000000000e+00
1.04290233998e-03
1.59310104097e-04
0.00000000000e+00
1.04259860584e-03
1.61285917258e-04
0.00000000000e+00
1.04229112846e-03
1.63261151353e-04
0.00000000000e+00
1.04197990894e-03
1.65235799290e-04
0.00000000000e+00
1.04166494840e-03
1.67209853980e-04
0.00000000000e+00
1.04134624798e-03
1.69183308339e-04
0.00000000000e+00
1.04102380881e-03
1.71156155280e-04
0.00000000000e+00
1.04069763206e-03
1.73128387718e-04
0.00000000000e+00
1.04036771889e-03
1.75099998573e-04
0.00000000000e+00
1.04003407049e-03
1.77070980766e-04
0.00000000000e+00
1.03969668805e-03
1.79041327222e-04
0.00000000000e+00
1.03935557280e-03
1.81011030865e-04
0.00000000000e+00
1.03901072595e-03
1.82980084625e-04
0.00000000000e+00
1.03866214874e-03
1.84948481432e-04
0.00000000000e+00
1.03830984242e-03
1.86916214219e-04
0.00000000000e+00
1.03795380826e-03
1.88883275922e-04
0.00000000000e+00
1.03759404753e-03
1.90849659477e-04
0.00000000000e+00
1.03723056154e-03
1.92815357825e-04
0.00000000000e+00
1.03686335157e-03
1.94780363909e-04
0.00000000000e+00
1.03649241896e-03
1.96744670673e-04
0.00000000000e+00
1.03611776503e-03
1.98708271064e-04
0.00000000000e+00
1.03573939113e-03
2.00671158032e-04
0.00000000000e+00
1.03535729861e-03
2.02633324532e-04
0.00000000000e+00
1.03497148885e-03
2.04594763517e-04
0.00000000000e+00
1.03458196324e-03
2.06555467946e-04
0.00000000000e+00
1.03418872317e-03
2.08515430780e-04
0.00000000000e+00
1.03379177005e-03
2.10474644980e-04
0.00000000000e+00
1.03339110531e-03
2.12433103512e-04
0.00000000000e+00
1.03298673039e-03
2.14390799346e-04
0.00000000000e+00
1.03257864673e-03
2.16347725453e-04
0.00000000000e+00
1.03216685582e-03
2.18303874807e-04
0.00000000000e+00
1.03175135911e-03
2.20259240385e-04
0.00000000000e+00
1.03133215811e-03
2.22213815167e-04
0.00000000000e+00
1.03090925432e-03
2.24167592135e-04
0.00000000000e+00
1.03048264925e-03
2.26120564275e-04
0.00000000000e+00
1.03005234445e-03
2.28072724574e-04
0.00000000000e+00
1.02961834145e-03
2.30024066025e-04
0.00000000000e+00
1.02918064181e-03
2.31974581620e-04
0.00000000000e+00
1.02873924711e-03
2.33924264358e-04
0.00000000000e+00
1.02829415893e-03
2.35873107237e-04
0.00000000000e+00
1.02784537886e-03
2.37821103262e-04
0.00000000000e+00
1.02739290852e-03
2.39768245439e-04
0.00000000000e+00
1.02693674954e-03
2.41714526775e-04
0.00000000000e+00
1.02647690354e-03
2.43659940284e-04
0.00000000000e+00
1.02601337219e-03
2.45604478982e-04
0.00000000000e+00
1.02554615714e-03
2.47548135887e-04
0.00000000000e+00
1.02507526007e-03
2.49490904020e-04
0.00000000000e+00
1.02460068268e-03
2.51432776406e-04
0.00000000000e+00
1.02412242667e-03
2.53373746073e-04
0.00000000000e+00
1.02364049375e-03
2.55313806053e-04
0.00000000000e+00
1.02315488565e-03
2.57252949380e-04
0.00000000000e+00
1.02266560413e-03
2.59191169093e-04
0.00000000000e+00
1.02217265093e-03
2.61128458232e-04
0.00000000000e+00
1.02167602782e-03
2.63064809843e-04
0.00000000000e+00
1.02117573659e-03
2.65000216974e-04
0.00000000000e+00
1.02067177904e-03
2.66934672675e-04
0.00000000000e+00
1.02016415697e-03
2.68868169998e-04
0.00000000000e+00
1.01965287220e-03
2.70800702003e-04
0.00000000000e+00
1.01913792658e-03
2.72732261754e-04
0.00000000000e+00
1.01861932195e-03
2.74662842315e-04
0.00000000000e+00
1.01809706017e-03
2.76592436755e-04
0.00000000000e+00
1.01757114312e-03
2.78521038142e-04
0.00000000000e+00
1.01704157269e-03
2.80448639558e-04
0.00000000000e+00
1.01650835077e-03
2.82375234082e-04
0.00000000000e+00
1.01597147928e-03
2.84300814794e-04
0.00000000000e+00
1.01543096015e-03
2.86225374780e-04
0.00000000000e+00
1.01488679532e-03
2.88148907130e-04
0.00000000000e+00
1.01433898675e-03
2.90071404942e-04
0.00000000000e+00
1.01378753639e-03
2.91992861309e-04
0.00000000000e+00
1.01323244624e-03
2.93913269334e-04
0.00000000000e+00
1.01267371828e-03
2.95832622121e-04
0.00000000000e+00
1.01211135451e-03
2.97750912785e-04
0.00000000000e+00
1.01154535697e-03
2.99668134435e-04
0.00000000000e+00
1.01097572767e-03
3.01584280187e-04
0.00000000000e+00
1.01040246867e-03
3.03499343160e-04
0.00000000000e+00
1.00982558203e-03
3.05413316481e-04
0.00000000000e+00
1.00924506981e-03
3.07326193276e-04
0.00000000000e+00
1.00866093409e-03
3.09237966677e-04
0.00000000000e+00
1.00807317699e-03
3.11148629820e-04
0.00000000000e+00
1.00748180060e-03
3.13058175846e-04
0.00000000000e+00
1.00688680705e-03
3.14966597902e-04
0.00000000000e+00
1.00628819847e-03
3.16873889133e-04
0.00000000000e+00
1.00568597702e-03
3.18780042692e-04
0.00000000000e+00
1.00508014486e-03
3.20685051736e-04
0.00000000000e+00
1.00447070416e-03
3.22588909425e-04
0.00000000000e+00
1.00385765711e-03
3.24491608923e-04
0.00000000000e+00
1.00324100591e-03
3.26393143401e-04
0.00000000000e+00
1.00262075278e-03
3.28293506030e-04
0.00000000000e+00
1.00199689993e-03
3.30192689989e-04
0.00000000000e+00
1.00136944962e-03
3.32090688458e-04
0.00000000000e+00
1.00073840410e-03
3.33987494623e-04
0.00000000000e+00
1.00010376562e-03
3.35883101673e-04
0.00000000000e+00
9.99465536475e-04
3.37777502801e-04
0.00000000000e+00
9.98823718949e-04
3.39670691206e-04
0.00000000000e+00
9.98178315348e-04
3.41562660093e-04
0.00000000000e+00
9.97529327988e-04
3.43453402667e-04
0.00000000000e+00
9.96876759201e-04
3.45342912139e-04
0.00000000000e+00
9.96220611329e-04
3.47231181727e-04
0.00000000000e+00
9.95560886728e-04
[...]
<PointData>
<DataArray type="UInt64" Name="bulk_node_ids" format="ascii">
2
5
1177
1178
1179
1180
1181
1182
1183
1184
1185
1186
1187
1188
1189
1190
1191
1192
1193
1194
1195
1196
1197
1198
1199
1200
1201
1202
1203
1204
1205
1206
1207
1208
1209
1210
1211
1212
1213
1214
1215
1216
1217
1218
1219
1220
1221
1222
1223
1224
1225
1226
1227
1228
1229
1230
1231
1232
1233
1234
1235
1236
1237
1238
1239
1240
1241
1242
1243
1244
1245
1246
1247
1248
1249
1250
1251
1252
1253
1254
1255
1256
1257
1258
1259
1260
1261
1262
1263
1264
1265
1266
1267
1268
1269
1270
1271
1272
1273
1274
1275
1276
1277
1278
1279
1280
1281
1282
1283
1284
1285
1286
1287
1288
1289
1290
1291
1292
1293
1294
1295
1296
1297
1298
1299
1300
1301
1302
1303
1304
1305
1306
1307
1308
1309
1310
1311
1312
1313
1314
1315
1316
1317
1318
1319
1320
1321
1322
1323
1324
1325
1326
1327
1328
1329
1330
1331
1332
1333
1334
1335
1336
1337
1338
1339
1340
1341
1342
1343
1344
1345
1346
1347
1348
1349
1350
1351
1352
1353
1354
1355
1356
1357
1358
1359
1360
1361
1362
1363
1364
1365
1366
1367
1368
1369
1370
1371
1372
1373
1374
1375
1376
1377
1378
1379
1380
1381
1382
1383
1384
1385
1386
1387
1388
1389
1390
1391
1392
1393
1394
1395
1396
1397
1398
1399
1400
1401
1402
1403
1404
1405
1406
1407
1408
1409
1410
1411
1412
1413
1414
1415
1416
1417
1418
1419
1420
1421
1422
1423
1424
1425
1426
1427
1428
1429
1430
1431
1432
1433
1434
1435
1436
1437
1438
1439
1440
1441
1442
1443
1444
1445
1446
1447
1448
1449
1450
1451
1452
1453
1454
1455
1456
1457
1458
1459
1460
1461
1462
1463
1464
1465
1466
1467
1468
1469
1470
1471
1472
1473
1474
1475
1476
1477
1478
1479
1480
1481
1482
1483
1484
1485
1486
1487
1488
1489
1490
1491
1492
1493
1494
1495
1496
1497
1498
1499
1500
1501
1502
1503
1504
1505
1506
1507
1508
1509
1510
1511
1512
1513
1514
1515
1516
1517
1518
1519
1520
1521
1522
1523
1524
1525
1526
1527
1528
1529
1530
1531
1532
1533
1534
1535
1536
1537
1538
1539
1540
1541
1542
1543
1544
1545
1546
1547
1548
1549
1550
1551
1552
1553
1554
1555
1556
1557
1558
1559
1560
1561
1562
1563
1564
1565
1566
1567
1568
1569
1570
1571
1572
1573
1574
1575
1576
1577
1578
1579
1580
1581
1582
1583
1584
1585
1586
1587
1588
1589
1590
1591
1592
1593
1594
1595
1596
1597
1598
1599
1600
1601
1602
1603
1604
1605
1606
1607
1608
1609
1610
1611
1612
1613
1614
1615
1616
1617
1618
1619
1620
1621
1622
1623
1624
1625
1626
1627
1628
1629
1630
1631
1632
1633
1634
1635
1636
1637
1638
1639
1640
1641
1642
1643
1644
1645
1646
1647
1648
1649
1650
1651
1652
1653
1654
1655
1656
1657
1658
1659
1660
1661
1662
1663
1664
1665
1666
1667
1668
1669
1670
1671
1672
1673
1674
1675
1676
1677
1678
1679
1680
1681
1682
1683
1684
1685
1686
1687
1688
1689
1690
1691
1692
1693
1694
1695
1696
1697
1698
1699
1700
1701
1702
1703
1704
1705
1706
1707
1708
1709
1710
1711
1712
1713
1714
1715
1716
1717
1718
1719
1720
1721
1722
1723
1724
1725
1726
1727
1728
1729
1730
1731
1732
1733
1734
1735
1736
1737
1738
1739
1740
1741
1742
1743
1744
1745
1746
1747
1748
1749
1750
1751
1752
1753
1754
1755
1756
1757
1758
1759
1760
1761
1762
1763
1764
1765
1766
1767
1768
1769
1770
1771
1772
1773
1774
1775
1776
1777
1778
1779
1780
1781
1782
1783
1784
1785
1786
1787
1788
1789
1790
1791
1792
1793
1794
1795
1796
1797
1798
1799
1800
1801
1802
1803
1804
1805
1806
1807
1808
1809
1810
1811
1812
1813
1814
1815
1816
1817
1818
1819
1820
1821
1822
1823
1824
1825
1826
1827
1828
1829
1830
1831
1832
1833
1834
1835
1836
1837
1838
1839
1840
1841
1842
1843
1844
1845
1846
1847
1848
1849
1850
1851
1852
1853
1854
1855
1856
1857
1858
1859
1860
1861
1862
1863
1864
1865
1866
1867
1868
1869
1870
1871
1872
1873
1874
1875
1876
1877
1878
1879
1880
1881
1882
1883
1884
1885
1886
1887
1888
1889
1890
1891
1892
1893
1894
1895
1896
1897
1898
1899
1900
1901
1902
1903
1904
1905
1906
1907
1908
1909
1910
1911
1912
1913
1914
1915
1916
1917
1918
1919
1920
1921
1922
1923
1924
1925
1926
1927
1928
1929
1930
1931
1932
1933
1934
1935
1936
1937
1938
1939
1940
1941
1942
1943
1944
1945
1946
1947
1948
1949
1950
1951
1952
1953
1954
1955
1956
1957
1958
1959
1960
1961
1962
1963
1964
1965
1966
1967
1968
1969
1970
1971
1972
1973
1974
1975
1976
1977
1978
1979
1980
1981
1982
1983
1984
1985
1986
1987
1988
1989
1990
1991
1992
1993
1994
1995
1996
1997
1998
1999
2000
2001
2002
2003
2004

</DataArray>
</PointData>
</Piece>
</UnstructuredGrid>
</VTKFile>
