<?xml version="1.0"?>
<VTKFile type="UnstructuredGrid" version="0.1" byte_order="LittleEndian">
<!--This file was created by meshio v4.3.11-->
<UnstructuredGrid>
<Piece NumberOfPoints="94" NumberOfCells="93">
<Points>
<DataArray type="Float64" Name="Points" NumberOfComponents="3" format="ascii">
1.05000000000e-03
0.00000000000e+00
0.00000000000e+00
1.00000000000e-01
0.00000000000e+00
0.00000000000e+00
1.10073884054e-03
0.00000000000e+00
0.00000000000e+00
1.15405339121e-03
0.00000000000e+00
0.00000000000e+00
1.21007441876e-03
0.00000000000e+00
0.00000000000e+00
1.26893933131e-03
0.00000000000e+00
0.00000000000e+00
1.33079249655e-03
0.00000000000e+00
0.00000000000e+00
1.39578559880e-03
0.00000000000e+00
0.00000000000e+00
1.46407803921e-03
0.00000000000e+00
0.00000000000e+00
1.53583731715e-03
0.00000000000e+00
0.00000000000e+00
1.61123941218e-03
0.00000000000e+00
0.00000000000e+00
1.69046925598e-03
0.00000000000e+00
0.00000000000e+00
1.77372115900e-03
0.00000000000e+00
0.00000000000e+00
1.86119929256e-03
0.00000000000e+00
0.00000000000e+00
1.95311821958e-03
0.00000000000e+00
0.00000000000e+00
2.04970335485e-03
0.00000000000e+00
0.00000000000e+00
2.15119160314e-03
0.00000000000e+00
0.00000000000e+00
2.25783180348e-03
0.00000000000e+00
0.00000000000e+00
2.36988557867e-03
0.00000000000e+00
0.00000000000e+00
2.48762768037e-03
0.00000000000e+00
0.00000000000e+00
2.61134689216e-03
0.00000000000e+00
0.00000000000e+00
2.74134665868e-03
0.00000000000e+00
0.00000000000e+00
2.87794578323e-03
0.00000000000e+00
0.00000000000e+00
3.02147929291e-03
0.00000000000e+00
0.00000000000e+00
3.17229919674e-03
0.00000000000e+00
0.00000000000e+00
3.33077539427e-03
0.00000000000e+00
0.00000000000e+00
3.49729655815e-03
0.00000000000e+00
0.00000000000e+00
3.67227108168e-03
0.00000000000e+00
0.00000000000e+00
3.85612807416e-03
0.00000000000e+00
0.00000000000e+00
4.04931847905e-03
0.00000000000e+00
0.00000000000e+00
4.25231610803e-03
0.00000000000e+00
0.00000000000e+00
4.46561881419e-03
0.00000000000e+00
0.00000000000e+00
4.68974970060e-03
0.00000000000e+00
0.00000000000e+00
4.92525845747e-03
0.00000000000e+00
0.00000000000e+00
5.17272269297e-03
0.00000000000e+00
0.00000000000e+00
5.43274929993e-03
0.00000000000e+00
0.00000000000e+00
5.70597603725e-03
0.00000000000e+00
0.00000000000e+00
5.99307296287e-03
0.00000000000e+00
0.00000000000e+00
6.29474424808e-03
0.00000000000e+00
0.00000000000e+00
6.61172969578e-03
0.00000000000e+00
0.00000000000e+00
6.94480672561e-03
0.00000000000e+00
0.00000000000e+00
7.29479222073e-03
0.00000000000e+00
0.00000000000e+00
7.66254460271e-03
0.00000000000e+00
0.00000000000e+00
8.04896570054e-03
0.00000000000e+00
0.00000000000e+00
8.45500331288e-03
0.00000000000e+00
0.00000000000e+00
8.88165317934e-03
0.00000000000e+00
0.00000000000e+00
9.32996154587e-03
0.00000000000e+00
0.00000000000e+00
9.80102816683e-03
0.00000000000e+00
0.00000000000e+00
1.02960082627e-02
0.00000000000e+00
0.00000000000e+00
1.08161157234e-02
0.00000000000e+00
0.00000000000e+00
1.13626261546e-02
0.00000000000e+00
0.00000000000e+00
1.19368799425e-02
0.00000000000e+00
0.00000000000e+00
1.25402853297e-02
0.00000000000e+00
0.00000000000e+00
1.31743223040e-02
0.00000000000e+00
0.00000000000e+00
1.38405458909e-02
0.00000000000e+00
0.00000000000e+00
1.45405899116e-02
0.00000000000e+00
0.00000000000e+00
1.52761712324e-02
0.00000000000e+00
0.00000000000e+00
1.60490939880e-02
0.00000000000e+00
0.00000000000e+00
1.68612537473e-02
0.00000000000e+00
0.00000000000e+00
1.77146425801e-02
0.00000000000e+00
0.00000000000e+00
1.86113529609e-02
0.00000000000e+00
0.00000000000e+00
1.95535844047e-02
0.00000000000e+00
0.00000000000e+00
2.05436477629e-02
0.00000000000e+00
0.00000000000e+00
2.15839709684e-02
0.00000000000e+00
0.00000000000e+00
2.26771057952e-02
0.00000000000e+00
0.00000000000e+00
2.38257331241e-02
0.00000000000e+00
0.00000000000e+00
2.50326697021e-02
0.00000000000e+00
0.00000000000e+00
2.63008758627e-02
0.00000000000e+00
0.00000000000e+00
2.76334619857e-02
0.00000000000e+00
0.00000000000e+00
2.90336959812e-02
0.00000000000e+00
0.00000000000e+00
3.05050120024e-02
0.00000000000e+00
0.00000000000e+00
3.20510186823e-02
0.00000000000e+00
0.00000000000e+00
3.36755075930e-02
0.00000000000e+00
0.00000000000e+00
3.53824631498e-02
0.00000000000e+00
0.00000000000e+00
3.71760707565e-02
0.00000000000e+00
0.00000000000e+00
3.90607300790e-02
0.00000000000e+00
0.00000000000e+00
4.10410632309e-02
0.00000000000e+00
0.00000000000e+00
4.31219267876e-02
0.00000000000e+00
0.00000000000e+00
4.53084243777e-02
0.00000000000e+00
0.00000000000e+00
4.76059184953e-02
0.00000000000e+00
0.00000000000e+00
5.00200433855e-02
0.00000000000e+00
0.00000000000e+00
5.25567201448e-02
0.00000000000e+00
0.00000000000e+00
5.52221698610e-02
0.00000000000e+00
0.00000000000e+00
5.80229298816e-02
0.00000000000e+00
0.00000000000e+00
6.09658689336e-02
0.00000000000e+00
0.00000000000e+00
6.40582046464e-02
0.00000000000e+00
0.00000000000e+00
6.73075217313e-02
0.00000000000e+00
0.00000000000e+00
7.07217872275e-02
0.00000000000e+00
0.00000000000e+00
7.43093776865e-02
0.00000000000e+00
0.00000000000e+00
7.80790893208e-02
0.00000000000e+00
0.00000000000e+00
8.20401683945e-02
0.00000000000e+00
0.00000000000e+00
8.62023291060e-02
0.00000000000e+00
0.00000000000e+00
9.05757800341e-02
0.00000000000e+00
0.00000000000e+00
9.51712469621e-02
0.00000000000e+00
0.00000000000e+00

</DataArray>
</Points>
<Cells>
<DataArray type="Int64" Name="connectivity" format="ascii">
0
2
2
3
3
4
4
5
5
6
6
7
7
8
8
9
9
10
10
11
11
12
12
13
13
14
14
15
15
16
16
17
17
18
18
19
19
20
20
21
21
22
22
23
23
24
24
25
25
26
26
27
27
28
28
29
29
30
30
31
31
32
32
33
33
34
34
35
35
36
36
37
37
38
38
39
39
40
40
41
41
42
42
43
43
44
44
45
45
46
46
47
47
48
48
49
49
50
50
51
51
52
52
53
53
54
54
55
55
56
56
57
57
58
58
59
59
60
60
61
61
62
62
63
63
64
64
65
65
66
66
67
67
68
68
69
69
70
70
71
71
72
72
73
73
74
74
75
75
76
76
77
77
78
78
79
79
80
80
81
81
82
82
83
83
84
84
85
85
86
86
87
87
88
88
89
89
90
90
91
91
92
92
93
93
1

</DataArray>
<DataArray type="Int64" Name="offsets" format="ascii">
2
4
6
8
10
12
14
16
18
20
22
24
26
28
30
32
34
36
38
40
42
44
46
48
50
52
54
56
58
60
62
64
66
68
70
72
74
76
78
80
82
84
86
88
90
92
94
96
98
100
102
104
106
108
110
112
114
116
118
120
122
124
126
128
130
132
134
136
138
140
142
144
146
148
150
152
154
156
158
160
162
164
166
168
170
172
174
176
178
180
182
184
186

</DataArray>
<DataArray type="Int64" Name="types" format="ascii">
3
3
3
3
3
3
3
3
3
3
3
3
3
3
3
3
3
3
3
3
3
3
3
3
3
3
3
3
3
3
3
3
3
3
3
3
3
3
3
3
3
3
3
3
3
3
3
3
3
3
3
3
3
3
3
3
3
3
3
3
3
3
3
3
3
3
3
3
3
3
3
3
3
3
3
3
3
3
3
3
3
3
3
3
3
3
3
3
3
3
3
3
3

</DataArray>
</Cells>
<PointData>
<DataArray type="UInt64" Name="bulk_node_ids" format="ascii">
2
3
21
22
23
24
25
26
27
28
29
30
31
32
33
34
35
36
37
38
39
40
41
42
43
44
45
46
47
48
49
50
51
52
53
54
55
56
57
58
59
60
61
62
63
64
65
66
67
68
69
70
71
72
73
74
75
76
77
78
79
80
81
82
83
84
85
86
87
88
89
90
91
92
93
94
95
96
97
98
99
100
101
102
103
104
105
106
107
108
109
110
111
112

</DataArray>
</PointData>
<CellData>
<DataArray type="UInt64" Name="bulk_elem_ids" format="ascii">
4371
2547
5308
2551
5612
2558
5035
2591
4945
2606
3025
2625
3053
2643
3105
2715
3209
5508
2833
3254
2831
4682
3592
2834
4199
3898
2842
3990
4010
2817
3259
2838
3245
3346
2827
3742
2812
3251
2802
2835
3253
2828
3252
2803
2845
3256
2815
3938
2804
2814
3248
2826
3786
864
2837
3258
2825
5416
2800
2824
3255
2844
801
2797
2840
3257
2809
4804
4998
2822
5637
3949
2769
3132
2720
2748
3169
2681
3058
2627
2572
5726
2570
5446
2569
2979
2559
2523
2936
2512
2961
2503
4482

</DataArray>
</CellData>
</Piece>
</UnstructuredGrid>
</VTKFile>
