<?xml version="1.0"?>
<VTKFile type="UnstructuredGrid" version="0.1" byte_order="LittleEndian">
<!--This file was created by meshio v4.3.11-->
<UnstructuredGrid>
<Piece NumberOfPoints="12" NumberOfCells="11">
<Points>
<DataArray type="Float64" Name="Points" NumberOfComponents="3" format="ascii">
5.00000000000e-04
0.00000000000e+00
0.00000000000e+00
1.05000000000e-03
0.00000000000e+00
0.00000000000e+00
5.50000000000e-04
0.00000000000e+00
0.00000000000e+00
6.00000000000e-04
0.00000000000e+00
0.00000000000e+00
6.50000000000e-04
0.00000000000e+00
0.00000000000e+00
6.99999999999e-04
0.00000000000e+00
0.00000000000e+00
7.49999999999e-04
0.00000000000e+00
0.00000000000e+00
7.99999999999e-04
0.00000000000e+00
0.00000000000e+00
8.49999999999e-04
0.00000000000e+00
0.00000000000e+00
8.99999999999e-04
0.00000000000e+00
0.00000000000e+00
9.50000000000e-04
0.00000000000e+00
0.00000000000e+00
1.00000000000e-03
0.00000000000e+00
0.00000000000e+00

</DataArray>
</Points>
<Cells>
<DataArray type="Int64" Name="connectivity" format="ascii">
0
2
2
3
3
4
4
5
5
6
6
7
7
8
8
9
9
10
10
11
11
1

</DataArray>
<DataArray type="Int64" Name="offsets" format="ascii">
2
4
6
8
10
12
14
16
18
20
22

</DataArray>
<DataArray type="Int64" Name="types" format="ascii">
3
3
3
3
3
3
3
3
3
3
3

</DataArray>
</Cells>
<PointData>
<DataArray type="UInt64" Name="bulk_node_ids" format="ascii">
1
2
11
12
13
14
15
16
17
18
19
20

</DataArray>
</PointData>
<CellData>
<DataArray type="UInt64" Name="bulk_elem_ids" format="ascii">
607
211
229
281
284
292
286
302
304
300
638

</DataArray>
</CellData>
</Piece>
</UnstructuredGrid>
</VTKFile>
