<?xml version="1.0"?>
<VTKFile type="UnstructuredGrid" version="0.1" byte_order="LittleEndian">
<!--This file was created by meshio v4.3.11-->
<UnstructuredGrid>
<Piece NumberOfPoints="34" NumberOfCells="33">
<Points>
<DataArray type="Float64" Name="Points" NumberOfComponents="3" format="ascii">
1.05000000000e-03
0.00000000000e+00
0.00000000000e+00
0.00000000000e+00
1.05000000000e-03
0.00000000000e+00
1.04881070614e-03
4.99610117333e-05
0.00000000000e+00
1.04524551868e-03
9.98088456958e-05
0.00000000000e+00
1.03931251393e-03
1.49430580526e-04
0.00000000000e+00
1.03102513203e-03
1.98713807078e-04
0.00000000000e+00
1.02040214658e-03
2.47546882933e-04
0.00000000000e+00
1.00746762207e-03
2.95819185441e-04
0.00000000000e+00
9.92250859339e-04
3.43421362383e-04
0.00000000000e+00
9.74786329269e-04
3.90245579438e-04
0.00000000000e+00
9.55113594612e-04
4.36185764770e-04
0.00000000000e+00
9.33277220452e-04
4.81137849046e-04
0.00000000000e+00
9.09326673208e-04
5.25000001327e-04
0.00000000000e+00
8.83316208541e-04
5.67672859778e-04
0.00000000000e+00
8.55304748577e-04
6.09059756561e-04
0.00000000000e+00
8.25355748202e-04
6.49066937157e-04
0.00000000000e+00
7.93537051594e-04
6.87603772348e-04
0.00000000000e+00
7.59920738323e-04
7.24582963826e-04
0.00000000000e+00
7.24582960281e-04
7.59920741703e-04
0.00000000000e+00
6.87603768940e-04
7.93537054547e-04
0.00000000000e+00
6.49066933917e-04
8.25355750749e-04
0.00000000000e+00
6.09059753547e-04
8.55304750723e-04
0.00000000000e+00
5.67672856894e-04
8.83316210395e-04
0.00000000000e+00
5.24999998578e-04
9.09326674795e-04
0.00000000000e+00
4.81137846447e-04
9.33277221793e-04
0.00000000000e+00
4.36185762375e-04
9.55113595705e-04
0.00000000000e+00
3.90245577298e-04
9.74786330125e-04
0.00000000000e+00
3.43421360469e-04
9.92250860001e-04
0.00000000000e+00
2.95819183762e-04
1.00746762257e-03
0.00000000000e+00
2.47546881589e-04
1.02040214691e-03
0.00000000000e+00
1.98713806001e-04
1.03102513224e-03
0.00000000000e+00
1.49430579746e-04
1.03931251404e-03
0.00000000000e+00
9.98088451655e-05
1.04524551873e-03
0.00000000000e+00
4.99610114890e-05
1.04881070615e-03
0.00000000000e+00

</DataArray>
</Points>
<Cells>
<DataArray type="Int64" Name="connectivity" format="ascii">
0
2
2
3
3
4
4
5
5
6
6
7
7
8
8
9
9
10
10
11
11
12
12
13
13
14
14
15
15
16
16
17
17
18
18
19
19
20
20
21
21
22
22
23
23
24
24
25
25
26
26
27
27
28
28
29
29
30
30
31
31
32
32
33
33
1

</DataArray>
<DataArray type="Int64" Name="offsets" format="ascii">
2
4
6
8
10
12
14
16
18
20
22
24
26
28
30
32
34
36
38
40
42
44
46
48
50
52
54
56
58
60
62
64
66

</DataArray>
<DataArray type="Int64" Name="types" format="ascii">
3
3
3
3
3
3
3
3
3
3
3
3
3
3
3
3
3
3
3
3
3
3
3
3
3
3
3
3
3
3
3
3
3

</DataArray>
</Cells>
<PointData>
<DataArray type="UInt64" Name="bulk_node_ids" format="ascii">
2
5
234
235
236
237
238
239
240
241
242
243
244
245
246
247
248
249
250
251
252
253
254
255
256
257
258
259
260
261
262
263
264
265

</DataArray>
</PointData>
</Piece>
</UnstructuredGrid>
</VTKFile>
