<?xml version="1.0"?>
<VTKFile type="UnstructuredGrid" version="0.1" byte_order="LittleEndian">
<!--This file was created by meshio v4.3.11-->
<UnstructuredGrid>
<Piece NumberOfPoints="17" NumberOfCells="16">
<Points>
<DataArray type="Float64" Name="Points" NumberOfComponents="3" format="ascii">
5.00000000000e-04
0.00000000000e+00
0.00000000000e+00
0.00000000000e+00
5.00000000000e-04
0.00000000000e+00
4.97592363325e-04
4.90085702758e-05
0.00000000000e+00
4.90392640155e-04
9.75451612399e-05
0.00000000000e+00
4.78470167757e-04
1.45142338986e-04
0.00000000000e+00
4.61939766042e-04
1.91341716698e-04
0.00000000000e+00
4.40960631852e-04
2.35698369016e-04
0.00000000000e+00
4.15734805698e-04
2.77785117187e-04
0.00000000000e+00
3.86505226048e-04
3.17196642853e-04
0.00000000000e+00
3.53553389791e-04
3.53553391395e-04
0.00000000000e+00
3.17196641321e-04
3.86505227306e-04
0.00000000000e+00
2.77785115800e-04
4.15734806625e-04
0.00000000000e+00
2.35698367764e-04
4.40960632521e-04
0.00000000000e+00
1.91341715623e-04
4.61939766487e-04
0.00000000000e+00
1.45142338163e-04
4.78470168007e-04
0.00000000000e+00
9.75451606939e-05
4.90392640264e-04
0.00000000000e+00
4.90085700162e-05
4.97592363351e-04
0.00000000000e+00

</DataArray>
</Points>
<Cells>
<DataArray type="Int64" Name="connectivity" format="ascii">
0
2
2
3
3
4
4
5
5
6
6
7
7
8
8
9
9
10
10
11
11
12
12
13
13
14
14
15
15
16
16
1

</DataArray>
<DataArray type="Int64" Name="offsets" format="ascii">
2
4
6
8
10
12
14
16
18
20
22
24
26
28
30
32

</DataArray>
<DataArray type="Int64" Name="types" format="ascii">
3
3
3
3
3
3
3
3
3
3
3
3
3
3
3
3

</DataArray>
</Cells>
<PointData>
<DataArray type="UInt64" Name="bulk_node_ids" format="ascii">
1
6
219
220
221
222
223
224
225
226
227
228
229
230
231
232
233

</DataArray>
</PointData>
</Piece>
</UnstructuredGrid>
</VTKFile>
