<?xml version="1.0"?>
<VTKFile type="UnstructuredGrid" version="0.1" byte_order="LittleEndian">
<!--This file was created by meshio v4.3.11-->
<UnstructuredGrid>
<Piece NumberOfPoints="64" NumberOfCells="100">
<Points>
<DataArray type="Float64" Name="Points" NumberOfComponents="3" format="ascii">
0.00000000000e+00
0.00000000000e+00
0.00000000000e+00
5.00000000000e-04
0.00000000000e+00
0.00000000000e+00
0.00000000000e+00
5.00000000000e-04
0.00000000000e+00
1.66115517079e-04
0.00000000000e+00
0.00000000000e+00
2.89538615647e-04
0.00000000000e+00
0.00000000000e+00
3.81241413620e-04
0.00000000000e+00
0.00000000000e+00
4.49376177174e-04
0.00000000000e+00
0.00000000000e+00
0.00000000000e+00
4.49376177174e-04
0.00000000000e+00
0.00000000000e+00
3.81241413621e-04
0.00000000000e+00
0.00000000000e+00
2.89538615648e-04
0.00000000000e+00
0.00000000000e+00
1.66115517079e-04
0.00000000000e+00
4.97592363325e-04
4.90085702758e-05
0.00000000000e+00
4.90392640155e-04
9.75451612399e-05
0.00000000000e+00
4.78470167757e-04
1.45142338986e-04
0.00000000000e+00
4.61939766042e-04
1.91341716698e-04
0.00000000000e+00
4.40960631852e-04
2.35698369016e-04
0.00000000000e+00
4.15734805698e-04
2.77785117187e-04
0.00000000000e+00
3.86505226048e-04
3.17196642853e-04
0.00000000000e+00
3.53553389791e-04
3.53553391395e-04
0.00000000000e+00
3.17196641321e-04
3.86505227306e-04
0.00000000000e+00
2.77785115800e-04
4.15734806625e-04
0.00000000000e+00
2.35698367764e-04
4.40960632521e-04
0.00000000000e+00
1.91341715623e-04
4.61939766487e-04
0.00000000000e+00
1.45142338163e-04
4.78470168007e-04
0.00000000000e+00
9.75451606939e-05
4.90392640264e-04
0.00000000000e+00
4.90085700162e-05
4.97592363351e-04
0.00000000000e+00
3.63491121339e-04
2.64556805801e-04
0.00000000000e+00
2.67597911049e-04
3.67490023001e-04
0.00000000000e+00
4.22536419105e-04
1.55036061683e-04
0.00000000000e+00
1.52096689357e-04
4.22478266739e-04
0.00000000000e+00
9.01080578109e-05
2.29108614507e-04
0.00000000000e+00
3.43167623481e-04
7.16399376733e-05
0.00000000000e+00
5.47832469391e-05
4.13065299345e-04
0.00000000000e+00
4.08923899901e-04
4.85898152416e-05
0.00000000000e+00
9.67109840815e-05
3.16548499700e-04
0.00000000000e+00
1.70003812794e-04
2.76692721044e-04
0.00000000000e+00
1.71472998661e-04
1.90245422599e-04
0.00000000000e+00
2.38787854177e-04
2.40464034703e-04
0.00000000000e+00
2.51338510001e-04
7.89429979704e-05
0.00000000000e+00
3.01569530496e-04
1.44558401400e-04
0.00000000000e+00
1.69559171971e-04
3.51286549776e-04
0.00000000000e+00
2.35899367044e-04
3.06092843753e-04
0.00000000000e+00
3.00257042871e-04
2.81601439058e-04
0.00000000000e+00
3.13216475470e-04
2.13525394181e-04
0.00000000000e+00
3.81561871719e-04
2.08489261851e-04
0.00000000000e+00
3.65518121294e-04
1.30901035544e-04
0.00000000000e+00
1.00273998306e-04
1.14961253784e-04
0.00000000000e+00
1.04304696081e-04
3.83851754735e-04
0.00000000000e+00
2.00549162965e-04
3.98837556063e-04
0.00000000000e+00
1.02441372117e-04
4.38476348832e-04
0.00000000000e+00
3.02723309173e-04
3.34177427704e-04
0.00000000000e+00
3.41697673642e-04
3.09924593513e-04
0.00000000000e+00
4.47520909887e-04
1.12098152631e-04
0.00000000000e+00
4.52978743637e-04
6.76477002507e-05
0.00000000000e+00
1.82305124882e-04
1.09305255248e-04
0.00000000000e+00
2.23985071195e-04
3.57985587201e-04
0.00000000000e+00
6.07556699532e-05
4.57780565793e-04
0.00000000000e+00
4.21897640533e-04
2.06361668155e-04
0.00000000000e+00
2.39040017562e-04
1.72391175347e-04
0.00000000000e+00
4.01098204221e-04
9.78562702313e-05
0.00000000000e+00
5.11597854204e-05
3.56849116610e-04
0.00000000000e+00
2.41123125755e-04
3.96201721082e-04
0.00000000000e+00
3.40466499745e-04
1.74368523244e-04
0.00000000000e+00
4.02489513945e-04
2.41242931528e-04
0.00000000000e+00

</DataArray>
</Points>
<Cells>
<DataArray type="Int64" Name="connectivity" format="ascii">
25
7
56
6
11
53
44
28
57
7
25
2
6
1
11
28
44
45
27
41
50
0
3
46
46
3
54
40
41
55
41
42
50
26
42
43
9
30
34
26
43
44
21
22
48
7
32
56
10
0
46
45
44
62
31
5
33
9
10
30
4
5
31
3
4
38
40
35
41
33
6
53
34
30
35
40
29
47
34
35
40
29
40
48
7
8
32
22
29
48
35
36
37
5
6
33
8
9
60
9
34
60
31
33
59
23
24
49
35
37
41
38
31
39
38
39
58
39
31
45
26
44
63
42
26
51
39
43
58
43
37
58
35
30
36
42
37
43
29
23
49
54
38
58
41
27
55
41
37
42
28
45
59
3
38
54
4
31
38
19
20
27
34
40
47
47
29
49
16
17
26
13
14
28
22
23
29
53
52
59
32
47
49
52
28
59
30
10
46
45
31
59
36
30
46
50
42
51
18
19
50
17
18
51
12
13
52
33
53
59
21
48
61
11
12
53
47
32
60
37
36
58
48
40
55
36
54
58
19
27
50
24
25
56
14
15
57
26
17
51
44
43
62
13
28
52
32
49
56
20
21
61
27
20
61
43
39
62
49
24
56
28
14
57
16
26
63
15
16
63
18
50
51
12
52
53
36
46
54
32
8
60
39
45
62
55
27
61
34
47
60
57
15
63
48
55
61
44
57
63

</DataArray>
<DataArray type="Int64" Name="offsets" format="ascii">
3
6
9
12
15
18
21
24
27
30
33
36
39
42
45
48
51
54
57
60
63
66
69
72
75
78
81
84
87
90
93
96
99
102
105
108
111
114
117
120
123
126
129
132
135
138
141
144
147
150
153
156
159
162
165
168
171
174
177
180
183
186
189
192
195
198
201
204
207
210
213
216
219
222
225
228
231
234
237
240
243
246
249
252
255
258
261
264
267
270
273
276
279
282
285
288
291
294
297
300

</DataArray>
<DataArray type="Int64" Name="types" format="ascii">
5
5
5
5
5
5
5
5
5
5
5
5
5
5
5
5
5
5
5
5
5
5
5
5
5
5
5
5
5
5
5
5
5
5
5
5
5
5
5
5
5
5
5
5
5
5
5
5
5
5
5
5
5
5
5
5
5
5
5
5
5
5
5
5
5
5
5
5
5
5
5
5
5
5
5
5
5
5
5
5
5
5
5
5
5
5
5
5
5
5
5
5
5
5
5
5
5
5
5
5

</DataArray>
</Cells>
<PointData>
<DataArray type="UInt64" Name="bulk_node_ids" format="ascii">
0
1
6
7
8
9
10
215
216
217
218
219
220
221
222
223
224
225
226
227
228
229
230
231
232
233
297
298
299
300
301
302
303
304
305
306
307
308
309
310
311
312
313
314
315
316
317
318
319
320
321
322
323
324
325
326
327
328
329
330
331
332
333
334

</DataArray>
</PointData>
<CellData>
<DataArray type="Int32" Name="MaterialIDs" format="ascii">
0
0
0
0
0
0
0
0
0
0
0
0
0
0
0
0
0
0
0
0
0
0
0
0
0
0
0
0
0
0
0
0
0
0
0
0
0
0
0
0
0
0
0
0
0
0
0
0
0
0
0
0
0
0
0
0
0
0
0
0
0
0
0
0
0
0
0
0
0
0
0
0
0
0
0
0
0
0
0
0
0
0
0
0
0
0
0
0
0
0
0
0
0
0
0
0
0
0
0
0

</DataArray>
</CellData>
</Piece>
</UnstructuredGrid>
</VTKFile>
