<?xml version="1.0"?>
<VTKFile type="UnstructuredGrid" version="0.1" byte_order="LittleEndian">
<!--This file was created by meshio v4.3.11-->
<UnstructuredGrid>
<Piece NumberOfPoints="94" NumberOfCells="93">
<Points>
<DataArray type="Float64" Name="Points" NumberOfComponents="3" format="ascii">
0.00000000000e+00
1.00000000000e-01
0.00000000000e+00
0.00000000000e+00
1.05000000000e-03
0.00000000000e+00
0.00000000000e+00
9.51712469621e-02
0.00000000000e+00
0.00000000000e+00
9.05757800342e-02
0.00000000000e+00
0.00000000000e+00
8.62023291061e-02
0.00000000000e+00
0.00000000000e+00
8.20401683946e-02
0.00000000000e+00
0.00000000000e+00
7.80790893210e-02
0.00000000000e+00
0.00000000000e+00
7.43093776867e-02
0.00000000000e+00
0.00000000000e+00
7.07217872277e-02
0.00000000000e+00
0.00000000000e+00
6.73075217316e-02
0.00000000000e+00
0.00000000000e+00
6.40582046467e-02
0.00000000000e+00
0.00000000000e+00
6.09658689338e-02
0.00000000000e+00
0.00000000000e+00
5.80229298818e-02
0.00000000000e+00
0.00000000000e+00
5.52221698613e-02
0.00000000000e+00
0.00000000000e+00
5.25567201451e-02
0.00000000000e+00
0.00000000000e+00
5.00200433858e-02
0.00000000000e+00
0.00000000000e+00
4.76059184955e-02
0.00000000000e+00
0.00000000000e+00
4.53084243780e-02
0.00000000000e+00
0.00000000000e+00
4.31219267878e-02
0.00000000000e+00
0.00000000000e+00
4.10410632312e-02
0.00000000000e+00
0.00000000000e+00
3.90607300792e-02
0.00000000000e+00
0.00000000000e+00
3.71760707567e-02
0.00000000000e+00
0.00000000000e+00
3.53824631500e-02
0.00000000000e+00
0.00000000000e+00
3.36755075932e-02
0.00000000000e+00
0.00000000000e+00
3.20510186824e-02
0.00000000000e+00
0.00000000000e+00
3.05050120025e-02
0.00000000000e+00
0.00000000000e+00
2.90336959813e-02
0.00000000000e+00
0.00000000000e+00
2.76334619858e-02
0.00000000000e+00
0.00000000000e+00
2.63008758628e-02
0.00000000000e+00
0.00000000000e+00
2.50326697022e-02
0.00000000000e+00
0.00000000000e+00
2.38257331242e-02
0.00000000000e+00
0.00000000000e+00
2.26771057952e-02
0.00000000000e+00
0.00000000000e+00
2.15839709685e-02
0.00000000000e+00
0.00000000000e+00
2.05436477630e-02
0.00000000000e+00
0.00000000000e+00
1.95535844047e-02
0.00000000000e+00
0.00000000000e+00
1.86113529610e-02
0.00000000000e+00
0.00000000000e+00
1.77146425801e-02
0.00000000000e+00
0.00000000000e+00
1.68612537473e-02
0.00000000000e+00
0.00000000000e+00
1.60490939880e-02
0.00000000000e+00
0.00000000000e+00
1.52761712324e-02
0.00000000000e+00
0.00000000000e+00
1.45405899117e-02
0.00000000000e+00
0.00000000000e+00
1.38405458910e-02
0.00000000000e+00
0.00000000000e+00
1.31743223040e-02
0.00000000000e+00
0.00000000000e+00
1.25402853297e-02
0.00000000000e+00
0.00000000000e+00
1.19368799425e-02
0.00000000000e+00
0.00000000000e+00
1.13626261546e-02
0.00000000000e+00
0.00000000000e+00
1.08161157234e-02
0.00000000000e+00
0.00000000000e+00
1.02960082627e-02
0.00000000000e+00
0.00000000000e+00
9.80102816686e-03
0.00000000000e+00
0.00000000000e+00
9.32996154590e-03
0.00000000000e+00
0.00000000000e+00
8.88165317936e-03
0.00000000000e+00
0.00000000000e+00
8.45500331290e-03
0.00000000000e+00
0.00000000000e+00
8.04896570056e-03
0.00000000000e+00
0.00000000000e+00
7.66254460273e-03
0.00000000000e+00
0.00000000000e+00
7.29479222075e-03
0.00000000000e+00
0.00000000000e+00
6.94480672563e-03
0.00000000000e+00
0.00000000000e+00
6.61172969580e-03
0.00000000000e+00
0.00000000000e+00
6.29474424810e-03
0.00000000000e+00
0.00000000000e+00
5.99307296289e-03
0.00000000000e+00
0.00000000000e+00
5.70597603726e-03
0.00000000000e+00
0.00000000000e+00
5.43274929994e-03
0.00000000000e+00
0.00000000000e+00
5.17272269299e-03
0.00000000000e+00
0.00000000000e+00
4.92525845748e-03
0.00000000000e+00
0.00000000000e+00
4.68974970061e-03
0.00000000000e+00
0.00000000000e+00
4.46561881420e-03
0.00000000000e+00
0.00000000000e+00
4.25231610803e-03
0.00000000000e+00
0.00000000000e+00
4.04931847905e-03
0.00000000000e+00
0.00000000000e+00
3.85612807417e-03
0.00000000000e+00
0.00000000000e+00
3.67227108168e-03
0.00000000000e+00
0.00000000000e+00
3.49729655816e-03
0.00000000000e+00
0.00000000000e+00
3.33077539427e-03
0.00000000000e+00
0.00000000000e+00
3.17229919675e-03
0.00000000000e+00
0.00000000000e+00
3.02147929292e-03
0.00000000000e+00
0.00000000000e+00
2.87794578323e-03
0.00000000000e+00
0.00000000000e+00
2.74134665868e-03
0.00000000000e+00
0.00000000000e+00
2.61134689216e-03
0.00000000000e+00
0.00000000000e+00
2.48762768037e-03
0.00000000000e+00
0.00000000000e+00
2.36988557868e-03
0.00000000000e+00
0.00000000000e+00
2.25783180349e-03
0.00000000000e+00
0.00000000000e+00
2.15119160314e-03
0.00000000000e+00
0.00000000000e+00
2.04970335486e-03
0.00000000000e+00
0.00000000000e+00
1.95311821958e-03
0.00000000000e+00
0.00000000000e+00
1.86119929256e-03
0.00000000000e+00
0.00000000000e+00
1.77372115900e-03
0.00000000000e+00
0.00000000000e+00
1.69046925598e-03
0.00000000000e+00
0.00000000000e+00
1.61123941218e-03
0.00000000000e+00
0.00000000000e+00
1.53583731715e-03
0.00000000000e+00
0.00000000000e+00
1.46407803921e-03
0.00000000000e+00
0.00000000000e+00
1.39578559880e-03
0.00000000000e+00
0.00000000000e+00
1.33079249655e-03
0.00000000000e+00
0.00000000000e+00
1.26893933131e-03
0.00000000000e+00
0.00000000000e+00
1.21007441876e-03
0.00000000000e+00
0.00000000000e+00
1.15405339121e-03
0.00000000000e+00
0.00000000000e+00
1.10073884054e-03
0.00000000000e+00

</DataArray>
</Points>
<Cells>
<DataArray type="Int64" Name="connectivity" format="ascii">
0
2
2
3
3
4
4
5
5
6
6
7
7
8
8
9
9
10
10
11
11
12
12
13
13
14
14
15
15
16
16
17
17
18
18
19
19
20
20
21
21
22
22
23
23
24
24
25
25
26
26
27
27
28
28
29
29
30
30
31
31
32
32
33
33
34
34
35
35
36
36
37
37
38
38
39
39
40
40
41
41
42
42
43
43
44
44
45
45
46
46
47
47
48
48
49
49
50
50
51
51
52
52
53
53
54
54
55
55
56
56
57
57
58
58
59
59
60
60
61
61
62
62
63
63
64
64
65
65
66
66
67
67
68
68
69
69
70
70
71
71
72
72
73
73
74
74
75
75
76
76
77
77
78
78
79
79
80
80
81
81
82
82
83
83
84
84
85
85
86
86
87
87
88
88
89
89
90
90
91
91
92
92
93
93
1

</DataArray>
<DataArray type="Int64" Name="offsets" format="ascii">
2
4
6
8
10
12
14
16
18
20
22
24
26
28
30
32
34
36
38
40
42
44
46
48
50
52
54
56
58
60
62
64
66
68
70
72
74
76
78
80
82
84
86
88
90
92
94
96
98
100
102
104
106
108
110
112
114
116
118
120
122
124
126
128
130
132
134
136
138
140
142
144
146
148
150
152
154
156
158
160
162
164
166
168
170
172
174
176
178
180
182
184
186

</DataArray>
<DataArray type="Int64" Name="types" format="ascii">
3
3
3
3
3
3
3
3
3
3
3
3
3
3
3
3
3
3
3
3
3
3
3
3
3
3
3
3
3
3
3
3
3
3
3
3
3
3
3
3
3
3
3
3
3
3
3
3
3
3
3
3
3
3
3
3
3
3
3
3
3
3
3
3
3
3
3
3
3
3
3
3
3
3
3
3
3
3
3
3
3
3
3
3
3
3
3
3
3
3
3
3
3

</DataArray>
</Cells>
<PointData>
<DataArray type="UInt64" Name="bulk_node_ids" format="ascii">
4
5
113
114
115
116
117
118
119
120
121
122
123
124
125
126
127
128
129
130
131
132
133
134
135
136
137
138
139
140
141
142
143
144
145
146
147
148
149
150
151
152
153
154
155
156
157
158
159
160
161
162
163
164
165
166
167
168
169
170
171
172
173
174
175
176
177
178
179
180
181
182
183
184
185
186
187
188
189
190
191
192
193
194
195
196
197
198
199
200
201
202
203
204

</DataArray>
</PointData>
<CellData>
<DataArray type="UInt64" Name="bulk_elem_ids" format="ascii">
4487
2514
5722
2511
3339
4247
2520
2586
5592
2540
3873
2562
2676
2584
1854
2743
2673
5151
2735
1926
2867
2753
2891
2764
1971
2906
2784
2948
2836
2002
2954
2841
2972
2818
2018
767
2819
2974
2830
2024
2965
2813
2975
2807
2026
2969
2806
2971
2843
5747
3372
2811
2967
2820
2025
5696
2808
760
2816
5292
2966
2829
2973
2810
2023
3422
2839
5058
2823
5467
2962
2821
2019
4832
2832
2001
2888
2714
3195
2642
2731
2624
2704
2605
5345
2590
2677
2557
2659
2550
2697
2546
4372

</DataArray>
</CellData>
</Piece>
</UnstructuredGrid>
</VTKFile>
