<?xml version="1.0"?>
<VTKFile type="UnstructuredGrid" version="0.1" byte_order="LittleEndian">
<!--This file was created by meshio v4.3.11-->
<UnstructuredGrid>
<Piece NumberOfPoints="365" NumberOfCells="657">
<Points>
<DataArray type="Float64" Name="Points" NumberOfComponents="3" format="ascii">
5.00000000000e-04
0.00000000000e+00
0.00000000000e+00
1.05000000000e-03
0.00000000000e+00
0.00000000000e+00
0.00000000000e+00
1.05000000000e-03
0.00000000000e+00
0.00000000000e+00
5.00000000000e-04
0.00000000000e+00
5.50000000000e-04
0.00000000000e+00
0.00000000000e+00
6.00000000000e-04
0.00000000000e+00
0.00000000000e+00
6.50000000000e-04
0.00000000000e+00
0.00000000000e+00
6.99999999999e-04
0.00000000000e+00
0.00000000000e+00
7.49999999999e-04
0.00000000000e+00
0.00000000000e+00
7.99999999999e-04
0.00000000000e+00
0.00000000000e+00
8.49999999999e-04
0.00000000000e+00
0.00000000000e+00
8.99999999999e-04
0.00000000000e+00
0.00000000000e+00
9.50000000000e-04
0.00000000000e+00
0.00000000000e+00
1.00000000000e-03
0.00000000000e+00
0.00000000000e+00
0.00000000000e+00
1.00000000000e-03
0.00000000000e+00
0.00000000000e+00
9.50000000000e-04
0.00000000000e+00
0.00000000000e+00
9.00000000000e-04
0.00000000000e+00
0.00000000000e+00
8.50000000001e-04
0.00000000000e+00
0.00000000000e+00
8.00000000001e-04
0.00000000000e+00
0.00000000000e+00
7.50000000001e-04
0.00000000000e+00
0.00000000000e+00
7.00000000001e-04
0.00000000000e+00
0.00000000000e+00
6.50000000000e-04
0.00000000000e+00
0.00000000000e+00
6.00000000000e-04
0.00000000000e+00
0.00000000000e+00
5.50000000000e-04
0.00000000000e+00
4.97592363325e-04
4.90085702758e-05
0.00000000000e+00
4.90392640155e-04
9.75451612399e-05
0.00000000000e+00
4.78470167757e-04
1.45142338986e-04
0.00000000000e+00
4.61939766042e-04
1.91341716698e-04
0.00000000000e+00
4.40960631852e-04
2.35698369016e-04
0.00000000000e+00
4.15734805698e-04
2.77785117187e-04
0.00000000000e+00
3.86505226048e-04
3.17196642853e-04
0.00000000000e+00
3.53553389791e-04
3.53553391395e-04
0.00000000000e+00
3.17196641321e-04
3.86505227306e-04
0.00000000000e+00
2.77785115800e-04
4.15734806625e-04
0.00000000000e+00
2.35698367764e-04
4.40960632521e-04
0.00000000000e+00
1.91341715623e-04
4.61939766487e-04
0.00000000000e+00
1.45142338163e-04
4.78470168007e-04
0.00000000000e+00
9.75451606939e-05
4.90392640264e-04
0.00000000000e+00
4.90085700162e-05
4.97592363351e-04
0.00000000000e+00
1.04881070614e-03
4.99610117333e-05
0.00000000000e+00
1.04524551868e-03
9.98088456958e-05
0.00000000000e+00
1.03931251393e-03
1.49430580526e-04
0.00000000000e+00
1.03102513203e-03
1.98713807078e-04
0.00000000000e+00
1.02040214658e-03
2.47546882933e-04
0.00000000000e+00
1.00746762207e-03
2.95819185441e-04
0.00000000000e+00
9.92250859339e-04
3.43421362383e-04
0.00000000000e+00
9.74786329269e-04
3.90245579438e-04
0.00000000000e+00
9.55113594612e-04
4.36185764770e-04
0.00000000000e+00
9.33277220452e-04
4.81137849046e-04
0.00000000000e+00
9.09326673208e-04
5.25000001327e-04
0.00000000000e+00
8.83316208541e-04
5.67672859778e-04
0.00000000000e+00
8.55304748577e-04
6.09059756561e-04
0.00000000000e+00
8.25355748202e-04
6.49066937157e-04
0.00000000000e+00
7.93537051594e-04
6.87603772348e-04
0.00000000000e+00
7.59920738323e-04
7.24582963826e-04
0.00000000000e+00
7.24582960281e-04
7.59920741703e-04
0.00000000000e+00
6.87603768940e-04
7.93537054547e-04
0.00000000000e+00
6.49066933917e-04
8.25355750749e-04
0.00000000000e+00
6.09059753547e-04
8.55304750723e-04
0.00000000000e+00
5.67672856894e-04
8.83316210395e-04
0.00000000000e+00
5.24999998578e-04
9.09326674795e-04
0.00000000000e+00
4.81137846447e-04
9.33277221793e-04
0.00000000000e+00
4.36185762375e-04
9.55113595705e-04
0.00000000000e+00
3.90245577298e-04
9.74786330125e-04
0.00000000000e+00
3.43421360469e-04
9.92250860001e-04
0.00000000000e+00
2.95819183762e-04
1.00746762257e-03
0.00000000000e+00
2.47546881589e-04
1.02040214691e-03
0.00000000000e+00
1.98713806001e-04
1.03102513224e-03
0.00000000000e+00
1.49430579746e-04
1.03931251404e-03
0.00000000000e+00
9.98088451655e-05
1.04524551873e-03
0.00000000000e+00
4.99610114890e-05
1.04881070615e-03
0.00000000000e+00
3.62566995479e-04
4.00079772955e-04
0.00000000000e+00
4.62554246887e-04
2.78824151764e-04
0.00000000000e+00
2.30354858912e-04
4.90375176253e-04
0.00000000000e+00
9.41693390124e-04
3.47214095882e-04
0.00000000000e+00
7.79053424038e-04
6.42205991780e-04
0.00000000000e+00
5.59630801201e-04
8.37655250491e-04
0.00000000000e+00
3.52910482529e-04
9.43514344833e-04
0.00000000000e+00
7.24977990378e-04
4.25964936830e-05
0.00000000000e+00
4.24090894281e-05
7.25020859941e-04
0.00000000000e+00
6.79613319848e-04
7.44640503969e-04
0.00000000000e+00
8.61301054803e-04
5.26083684818e-04
0.00000000000e+00
5.10214801596e-04
1.82557775647e-04
0.00000000000e+00
9.84591693232e-04
2.20204337638e-04
0.00000000000e+00
2.14486762580e-04
9.83902116790e-04
0.00000000000e+00
1.31155616363e-04
5.25723329722e-04
0.00000000000e+00
4.22198681461e-05
8.74967355780e-04
0.00000000000e+00
8.75001501629e-04
4.18249383772e-05
0.00000000000e+00
6.25000000000e-04
4.33012701891e-05
0.00000000000e+00
4.45436303513e-04
9.06259092972e-04
0.00000000000e+00
9.08929768956e-04
4.43197152305e-04
0.00000000000e+00
4.31197838773e-05
6.26209074290e-04
0.00000000000e+00
1.21871528915e-04
1.00204387080e-03
0.00000000000e+00
9.98350800822e-04
1.21952543918e-04
0.00000000000e+00
5.41055471922e-04
7.84333850361e-05
0.00000000000e+00
4.24089300863e-05
9.75749222867e-04
0.00000000000e+00
9.74630549109e-04
4.21185468754e-05
0.00000000000e+00
2.75871879078e-04
4.66170570029e-04
0.00000000000e+00
2.71817310837e-04
5.17500052157e-04
0.00000000000e+00
3.15633533588e-04
4.95988041583e-04
0.00000000000e+00
3.12324601155e-04
5.45700568132e-04
0.00000000000e+00
3.55660021474e-04
5.26423497763e-04
0.00000000000e+00
3.52760416431e-04
5.74216501932e-04
0.00000000000e+00
3.97336607323e-04
5.53200663261e-04
0.00000000000e+00
3.08327663228e-04
5.95049824305e-04
0.00000000000e+00
3.48950006469e-04
6.23228551136e-04
0.00000000000e+00
3.04235504867e-04
6.44311888457e-04
0.00000000000e+00
3.44932753270e-04
6.72520471367e-04
0.00000000000e+00
3.00151147921e-04
6.93667408777e-04
0.00000000000e+00
2.59423831130e-04
6.65402245496e-04
0.00000000000e+00
2.55306906340e-04
7.14823521026e-04
0.00000000000e+00
3.89674444173e-04
6.51376598069e-04
0.00000000000e+00
3.85669850166e-04
7.00722525577e-04
0.00000000000e+00
4.30467012577e-04
6.79561215223e-04
0.00000000000e+00
2.96073950920e-04
7.43106511815e-04
0.00000000000e+00
2.51174007749e-04
7.64298345274e-04
0.00000000000e+00
4.26440806718e-04
7.28975454367e-04
0.00000000000e+00
4.71297685923e-04
7.07752112607e-04
0.00000000000e+00
4.75307770796e-04
6.58320844400e-04
0.00000000000e+00
2.14560743819e-04
6.86521585407e-04
0.00000000000e+00
5.16166225836e-04
6.86506631732e-04
0.00000000000e+00
5.20192296717e-04
6.37031116491e-04
0.00000000000e+00
2.91994398597e-04
7.92609450922e-04
0.00000000000e+00
2.47036551482e-04
8.13835297884e-04
0.00000000000e+00
2.06210515910e-04
7.85489372500e-04
0.00000000000e+00
2.02033245485e-04
8.35061465715e-04
0.00000000000e+00
5.61060896974e-04
6.65262073766e-04
0.00000000000e+00
5.65071563605e-04
6.15766461898e-04
0.00000000000e+00
5.24228105719e-04
5.87559232975e-04
0.00000000000e+00
5.69067888135e-04
5.66307410775e-04
0.00000000000e+00
5.28273489697e-04
5.38126885061e-04
0.00000000000e+00
5.73063671266e-04
5.16898466152e-04
0.00000000000e+00
5.32319527034e-04
4.88740748147e-04
0.00000000000e+00
5.77063033847e-04
4.67506728972e-04
0.00000000000e+00
6.17835745316e-04
4.95660727571e-04
0.00000000000e+00
6.21824027217e-04
4.46252547618e-04
0.00000000000e+00
6.62634342276e-04
4.74428442242e-04
0.00000000000e+00
6.66622107687e-04
4.24999207680e-04
0.00000000000e+00
6.25800252582e-04
3.96841184007e-04
0.00000000000e+00
6.70611713037e-04
3.75581038940e-04
0.00000000000e+00
6.29785449981e-04
3.47444516802e-04
0.00000000000e+00
6.74587485302e-04
3.26136358015e-04
0.00000000000e+00
7.15464551559e-04
3.54322248366e-04
0.00000000000e+00
7.19479658237e-04
3.04801319579e-04
0.00000000000e+00
6.78539761393e-04
2.76606031586e-04
0.00000000000e+00
7.23444786451e-04
2.55221309527e-04
0.00000000000e+00
7.64432407779e-04
2.83451488960e-04
0.00000000000e+00
7.68392014344e-04
2.33810779034e-04
0.00000000000e+00
6.82481982256e-04
2.27024223411e-04
0.00000000000e+00
5.36340430882e-04
4.39387457835e-04
0.00000000000e+00
6.09877124107e-04
5.94487482879e-04
0.00000000000e+00
7.07475927164e-04
4.53179629333e-04
0.00000000000e+00
8.09430524138e-04
2.62063287729e-04
0.00000000000e+00
8.13383711216e-04
2.12370841775e-04
0.00000000000e+00
8.05446558139e-04
3.11736487598e-04
0.00000000000e+00
7.03470653222e-04
5.02665793398e-04
0.00000000000e+00
6.37650628733e-04
2.48470497150e-04
0.00000000000e+00
6.42303661707e-04
1.98922187636e-04
0.00000000000e+00
1.61136689243e-04
8.06671687059e-04
0.00000000000e+00
7.72122642141e-04
1.83401933779e-04
0.00000000000e+00
4.91524063798e-04
4.60738056617e-04
0.00000000000e+00
2.18828540752e-04
6.37354197897e-04
0.00000000000e+00
4.95999216410e-04
4.12045074479e-04
0.00000000000e+00
2.42937975546e-04
8.63438772428e-04
0.00000000000e+00
1.73920610310e-04
6.58443379775e-04
0.00000000000e+00
8.54460355713e-04
2.40651306630e-04
0.00000000000e+00
8.58416245442e-04
1.90921802408e-04
0.00000000000e+00
1.56968161927e-04
8.56320321164e-04
0.00000000000e+00
4.67263000054e-04
7.57260770560e-04
0.00000000000e+00
4.22386673693e-04
7.78481323113e-04
0.00000000000e+00
5.57048507074e-04
7.14772155802e-04
0.00000000000e+00
7.48365318272e-04
4.81390973516e-04
0.00000000000e+00
7.44351155227e-04
5.30945562747e-04
0.00000000000e+00
4.63210492387e-04
8.06819714069e-04
0.00000000000e+00
3.97018677893e-04
4.97954516975e-04
0.00000000000e+00
5.85040282489e-04
3.68688043629e-04
0.00000000000e+00
5.88999272797e-04
3.19358777134e-04
0.00000000000e+00
5.47384747331e-04
3.41590666310e-04
0.00000000000e+00
6.86536253227e-04
1.77483140203e-04
0.00000000000e+00
6.46338331492e-04
[...]
<PointData>
<DataArray type="UInt64" Name="bulk_node_ids" format="ascii">
1
2
5
6
11
12
13
14
15
16
17
18
19
20
205
206
207
208
209
210
211
212
213
214
219
220
221
222
223
224
225
226
227
228
229
230
231
232
233
234
235
236
237
238
239
240
241
242
243
244
245
246
247
248
249
250
251
252
253
254
255
256
257
258
259
260
261
262
263
264
265
335
336
337
338
339
340
341
342
343
344
345
346
347
348
349
350
351
352
353
354
355
356
357
358
359
360
361
362
363
364
365
366
367
368
369
370
371
372
373
374
375
376
377
378
379
380
381
382
383
384
385
386
387
388
389
390
391
392
393
394
395
396
397
398
399
400
401
402
403
404
405
406
407
408
409
410
411
412
413
414
415
416
417
418
419
420
421
422
423
424
425
426
427
428
429
430
431
432
433
434
435
436
437
438
439
440
441
442
443
444
445
446
447
448
449
450
451
452
453
454
455
456
457
458
459
460
461
462
463
464
465
466
467
468
469
470
471
472
473
474
475
476
477
478
479
480
481
482
483
484
485
486
487
488
489
490
491
492
493
494
495
496
497
498
499
500
501
502
503
504
505
506
507
508
509
510
511
512
513
514
515
516
517
518
519
520
521
522
523
524
525
526
527
528
529
530
531
532
533
534
535
536
537
538
539
540
541
542
543
544
545
546
547
548
549
550
551
552
553
554
555
556
557
558
559
560
561
562
563
564
565
566
567
568
569
570
571
572
573
574
575
576
577
578
579
580
581
582
583
584
585
586
587
588
589
590
591
592
593
594
595
596
597
598
599
600
601
602
603
604
605
606
607
608
609
610
611
612
613
614
615
616
617
618
619
620
621
622
623
624
625
626
627
628

</DataArray>
</PointData>
<CellData>
<DataArray type="Int32" Name="MaterialIDs" format="ascii">
1
1
1
1
1
1
1
1
1
1
1
1
1
1
1
1
1
1
1
1
1
1
1
1
1
1
1
1
1
1
1
1
1
1
1
1
1
1
1
1
1
1
1
1
1
1
1
1
1
1
1
1
1
1
1
1
1
1
1
1
1
1
1
1
1
1
1
1
1
1
1
1
1
1
1
1
1
1
1
1
1
1
1
1
1
1
1
1
1
1
1
1
1
1
1
1
1
1
1
1
1
1
1
1
1
1
1
1
1
1
1
1
1
1
1
1
1
1
1
1
1
1
1
1
1
1
1
1
1
1
1
1
1
1
1
1
1
1
1
1
1
1
1
1
1
1
1
1
1
1
1
1
1
1
1
1
1
1
1
1
1
1
1
1
1
1
1
1
1
1
1
1
1
1
1
1
1
1
1
1
1
1
1
1
1
1
1
1
1
1
1
1
1
1
1
1
1
1
1
1
1
1
1
1
1
1
1
1
1
1
1
1
1
1
1
1
1
1
1
1
1
1
1
1
1
1
1
1
1
1
1
1
1
1
1
1
1
1
1
1
1
1
1
1
1
1
1
1
1
1
1
1
1
1
1
1
1
1
1
1
1
1
1
1
1
1
1
1
1
1
1
1
1
1
1
1
1
1
1
1
1
1
1
1
1
1
1
1
1
1
1
1
1
1
1
1
1
1
1
1
1
1
1
1
1
1
1
1
1
1
1
1
1
1
1
1
1
1
1
1
1
1
1
1
1
1
1
1
1
1
1
1
1
1
1
1
1
1
1
1
1
1
1
1
1
1
1
1
1
1
1
1
1
1
1
1
1
1
1
1
1
1
1
1
1
1
1
1
1
1
1
1
1
1
1
1
1
1
1
1
1
1
1
1
1
1
1
1
1
1
1
1
1
1
1
1
1
1
1
1
1
1
1
1
1
1
1
1
1
1
1
1
1
1
1
1
1
1
1
1
1
1
1
1
1
1
1
1
1
1
1
1
1
1
1
1
1
1
1
1
1
1
1
1
1
1
1
1
1
1
1
1
1
1
1
1
1
1
1
1
1
1
1
1
1
1
1
1
1
1
1
1
1
1
1
1
1
1
1
1
1
1
1
1
1
1
1
1
1
1
1
1
1
1
1
1
1
1
1
1
1
1
1
1
1
1
1
1
1
1
1
1
1
1
1
1
1
1
1
1
1
1
1
1
1
1
1
1
1
1
1
1
1
1
1
1
1
1
1
1
1
1
1
1
1
1
1
1
1
1
1
1
1
1
1
1
1
1
1
1
1
1
1
1
1
1
1
1
1
1
1
1
1
1
1
1
1
1
1
1
1
1
1
1
1
1
1
1
1
1
1
1
1
1
1
1
1
1
1
1
1
1
1
1
1
1
1
1
1
1
1
1
1
1
1
1
1
1
1
1
1
1
1
1
1
1
1
1
1
1
1
1
1
1
1
1
1
1
1
1
1
1
1
1
1
1
1
1
1
1
1
1
1
1
1
1
1

</DataArray>
</CellData>
</Piece>
</UnstructuredGrid>
</VTKFile>
