<?xml version="1.0"?>
<VTKFile type="UnstructuredGrid" version="0.1" byte_order="LittleEndian">
<!--This file was created by meshio v4.3.11-->
<UnstructuredGrid>
<Piece NumberOfPoints="250" NumberOfCells="250">
<Points>
<DataArray type="Float64" Name="Points" NumberOfComponents="3" format="ascii">
0.00000000000e+00
0.00000000000e+00
0.00000000000e+00
5.00000000000e-04
0.00000000000e+00
0.00000000000e+00
1.05000000000e-03
0.00000000000e+00
0.00000000000e+00
1.00000000000e-01
0.00000000000e+00
0.00000000000e+00
0.00000000000e+00
1.00000000000e-01
0.00000000000e+00
0.00000000000e+00
1.05000000000e-03
0.00000000000e+00
0.00000000000e+00
5.00000000000e-04
0.00000000000e+00
1.66115517079e-04
0.00000000000e+00
0.00000000000e+00
2.89538615647e-04
0.00000000000e+00
0.00000000000e+00
3.81241413620e-04
0.00000000000e+00
0.00000000000e+00
4.49376177174e-04
0.00000000000e+00
0.00000000000e+00
5.50000000000e-04
0.00000000000e+00
0.00000000000e+00
6.00000000000e-04
0.00000000000e+00
0.00000000000e+00
6.50000000000e-04
0.00000000000e+00
0.00000000000e+00
6.99999999999e-04
0.00000000000e+00
0.00000000000e+00
7.49999999999e-04
0.00000000000e+00
0.00000000000e+00
7.99999999999e-04
0.00000000000e+00
0.00000000000e+00
8.49999999999e-04
0.00000000000e+00
0.00000000000e+00
8.99999999999e-04
0.00000000000e+00
0.00000000000e+00
9.50000000000e-04
0.00000000000e+00
0.00000000000e+00
1.00000000000e-03
0.00000000000e+00
0.00000000000e+00
1.10073884054e-03
0.00000000000e+00
0.00000000000e+00
1.15405339121e-03
0.00000000000e+00
0.00000000000e+00
1.21007441876e-03
0.00000000000e+00
0.00000000000e+00
1.26893933131e-03
0.00000000000e+00
0.00000000000e+00
1.33079249655e-03
0.00000000000e+00
0.00000000000e+00
1.39578559880e-03
0.00000000000e+00
0.00000000000e+00
1.46407803921e-03
0.00000000000e+00
0.00000000000e+00
1.53583731715e-03
0.00000000000e+00
0.00000000000e+00
1.61123941218e-03
0.00000000000e+00
0.00000000000e+00
1.69046925598e-03
0.00000000000e+00
0.00000000000e+00
1.77372115900e-03
0.00000000000e+00
0.00000000000e+00
1.86119929256e-03
0.00000000000e+00
0.00000000000e+00
1.95311821958e-03
0.00000000000e+00
0.00000000000e+00
2.04970335485e-03
0.00000000000e+00
0.00000000000e+00
2.15119160314e-03
0.00000000000e+00
0.00000000000e+00
2.25783180348e-03
0.00000000000e+00
0.00000000000e+00
2.36988557867e-03
0.00000000000e+00
0.00000000000e+00
2.48762768037e-03
0.00000000000e+00
0.00000000000e+00
2.61134689216e-03
0.00000000000e+00
0.00000000000e+00
2.74134665868e-03
0.00000000000e+00
0.00000000000e+00
2.87794578323e-03
0.00000000000e+00
0.00000000000e+00
3.02147929291e-03
0.00000000000e+00
0.00000000000e+00
3.17229919674e-03
0.00000000000e+00
0.00000000000e+00
3.33077539427e-03
0.00000000000e+00
0.00000000000e+00
3.49729655815e-03
0.00000000000e+00
0.00000000000e+00
3.67227108168e-03
0.00000000000e+00
0.00000000000e+00
3.85612807416e-03
0.00000000000e+00
0.00000000000e+00
4.04931847905e-03
0.00000000000e+00
0.00000000000e+00
4.25231610803e-03
0.00000000000e+00
0.00000000000e+00
4.46561881419e-03
0.00000000000e+00
0.00000000000e+00
4.68974970060e-03
0.00000000000e+00
0.00000000000e+00
4.92525845747e-03
0.00000000000e+00
0.00000000000e+00
5.17272269297e-03
0.00000000000e+00
0.00000000000e+00
5.43274929993e-03
0.00000000000e+00
0.00000000000e+00
5.70597603725e-03
0.00000000000e+00
0.00000000000e+00
5.99307296287e-03
0.00000000000e+00
0.00000000000e+00
6.29474424808e-03
0.00000000000e+00
0.00000000000e+00
6.61172969578e-03
0.00000000000e+00
0.00000000000e+00
6.94480672561e-03
0.00000000000e+00
0.00000000000e+00
7.29479222073e-03
0.00000000000e+00
0.00000000000e+00
7.66254460271e-03
0.00000000000e+00
0.00000000000e+00
8.04896570054e-03
0.00000000000e+00
0.00000000000e+00
8.45500331288e-03
0.00000000000e+00
0.00000000000e+00
8.88165317934e-03
0.00000000000e+00
0.00000000000e+00
9.32996154587e-03
0.00000000000e+00
0.00000000000e+00
9.80102816683e-03
0.00000000000e+00
0.00000000000e+00
1.02960082627e-02
0.00000000000e+00
0.00000000000e+00
1.08161157234e-02
0.00000000000e+00
0.00000000000e+00
1.13626261546e-02
0.00000000000e+00
0.00000000000e+00
1.19368799425e-02
0.00000000000e+00
0.00000000000e+00
1.25402853297e-02
0.00000000000e+00
0.00000000000e+00
1.31743223040e-02
0.00000000000e+00
0.00000000000e+00
1.38405458909e-02
0.00000000000e+00
0.00000000000e+00
1.45405899116e-02
0.00000000000e+00
0.00000000000e+00
1.52761712324e-02
0.00000000000e+00
0.00000000000e+00
1.60490939880e-02
0.00000000000e+00
0.00000000000e+00
1.68612537473e-02
0.00000000000e+00
0.00000000000e+00
1.77146425801e-02
0.00000000000e+00
0.00000000000e+00
1.86113529609e-02
0.00000000000e+00
0.00000000000e+00
1.95535844047e-02
0.00000000000e+00
0.00000000000e+00
2.05436477629e-02
0.00000000000e+00
0.00000000000e+00
2.15839709684e-02
0.00000000000e+00
0.00000000000e+00
2.26771057952e-02
0.00000000000e+00
0.00000000000e+00
2.38257331241e-02
0.00000000000e+00
0.00000000000e+00
2.50326697021e-02
0.00000000000e+00
0.00000000000e+00
2.63008758627e-02
0.00000000000e+00
0.00000000000e+00
2.76334619857e-02
0.00000000000e+00
0.00000000000e+00
2.90336959812e-02
0.00000000000e+00
0.00000000000e+00
3.05050120024e-02
0.00000000000e+00
0.00000000000e+00
3.20510186823e-02
0.00000000000e+00
0.00000000000e+00
3.36755075930e-02
0.00000000000e+00
0.00000000000e+00
3.53824631498e-02
0.00000000000e+00
0.00000000000e+00
3.71760707565e-02
0.00000000000e+00
0.00000000000e+00
3.90607300790e-02
0.00000000000e+00
0.00000000000e+00
4.10410632309e-02
0.00000000000e+00
0.00000000000e+00
4.31219267876e-02
0.00000000000e+00
0.00000000000e+00
4.53084243777e-02
0.00000000000e+00
0.00000000000e+00
4.76059184953e-02
0.00000000000e+00
0.00000000000e+00
5.00200433855e-02
0.00000000000e+00
0.00000000000e+00
5.25567201448e-02
0.00000000000e+00
0.00000000000e+00
5.52221698610e-02
0.00000000000e+00
0.00000000000e+00
5.80229298816e-02
0.00000000000e+00
0.00000000000e+00
6.09658689336e-02
0.00000000000e+00
0.00000000000e+00
6.40582046464e-02
0.00000000000e+00
0.00000000000e+00
6.73075217313e-02
0.00000000000e+00
0.00000000000e+00
7.07217872275e-02
0.00000000000e+00
0.00000000000e+00
7.43093776865e-02
0.00000000000e+00
0.00000000000e+00
7.80790893208e-02
0.00000000000e+00
0.00000000000e+00
8.20401683945e-02
0.00000000000e+00
0.00000000000e+00
8.62023291060e-02
0.00000000000e+00
0.00000000000e+00
9.05757800341e-02
0.00000000000e+00
0.00000000000e+00
9.51712469621e-02
0.00000000000e+00
0.00000000000e+00
0.00000000000e+00
9.51712469621e-02
0.00000000000e+00
0.00000000000e+00
9.05757800342e-02
0.00000000000e+00
0.00000000000e+00
8.62023291061e-02
0.00000000000e+00
0.00000000000e+00
8.20401683946e-02
0.00000000000e+00
0.00000000000e+00
7.80790893210e-02
0.00000000000e+00
0.00000000000e+00
7.43093776867e-02
0.00000000000e+00
0.00000000000e+00
7.07217872277e-02
0.00000000000e+00
0.00000000000e+00
6.73075217316e-02
0.00000000000e+00
0.00000000000e+00
6.40582046467e-02
0.00000000000e+00
0.00000000000e+00
6.09658689338e-02
0.00000000000e+00
0.00000000000e+00
5.80229298818e-02
0.00000000000e+00
0.00000000000e+00
5.52221698613e-02
0.00000000000e+00
0.00000000000e+00
5.25567201451e-02
0.00000000000e+00
0.00000000000e+00
5.00200433858e-02
0.00000000000e+00
0.00000000000e+00
4.76059184955e-02
0.00000000000e+00
0.00000000000e+00
4.53084243780e-02
0.00000000000e+00
0.00000000000e+00
4.31219267878e-02
0.00000000000e+00
0.00000000000e+00
4.10410632312e-02
0.00000000000e+00
0.00000000000e+00
3.90607300792e-02
0.00000000000e+00
0.00000000000e+00
3.71760707567e-02
0.00000000000e+00
0.00000000000e+00
3.53824631500e-02
0.00000000000e+00
0.00000000000e+00
3.36755075932e-02
0.00000000000e+00
0.00000000000e+00
3.20510186824e-02
0.00000000000e+00
0.00000000000e+00
3.05050120025e-02
0.00000000000e+00
0.00000000000e+00
2.90336959813e-02
0.00000000000e+00
0.00000000000e+00
2.76334619858e-02
0.00000000000e+00
0.00000000000e+00
2.63008758628e-02
0.00000000000e+00
0.00000000000e+00
2.50326697022e-02
0.00000000000e+00
0.00000000000e+00
2.38257331242e-02
0.00000000000e+00
0.00000000000e+00
2.26771057952e-02
0.00000000000e+00
0.00000000000e+00
2.15839709685e-02
0.00000000000e+00
0.00000000000e+00
2.05436477630e-02
0.00000000000e+00
0.00000000000e+00
1.95535844047e-02
0.00000000000e+00
0.00000000000e+00
1.86113529610e-02
0.00000000000e+00
0.00000000000e+00
1.77146425801e-02
0.00000000000e+00
0.00000000000e+00
1.68612537473e-02
0.00000000000e+00
0.00000000000e+00
1.60490939880e-02
0.00000000000e+00
0.00000000000e+00
1.52761712324e-02
0.00000000000e+00
0.00000000000e+00
1.45405899117e-02
0.00000000000e+00
0.00000000000e+00
1.38405458910e-02
0.00000000000e+00
0.00000000000e+00
1.31743223040e-02
0.00000000000e+00
0.00000000000e+00
1.25402853297e-02
0.00000000000e+00
0.00000000000e+00
1.19368799425e-02
0.00000000000e+00
0.00000000000e+00
1.13626261546e-02
0.00000000000e+00
0.00000000000e+00
1.08161157234e-02
0.00000000000e+00
0.00000000000e+00
1.02960082627e-02
0.00000000000e+00
0.00000000000e+00
9.80102816686e-03
0.00000000000e+00
0.00000000000e+00
9.32996154590e-03
0.00000000000e+00
0.00000000000e+00
8.88165317936e-03
0.00000000000e+00
0.00000000000e+00
8.45500331290e-03
0.00000000000e+00
0.00000000000e+00
8.04896570056e-03
0.00000000000e+00
0.00000000000e+00
7.66254460273e-03
0.00000000000e+00
0.00000000000e+00
7.29479222075e-03
0.00000000000e+00
0.00000000000e+00
6.94480672563e-03
0.00000000000e+00
0.00000000000e+00
6.61172969580e-03
0.00000000000e+00
0.00000000000e+00
6.29474424810e-03
0.00000000000e+00
0.00000000000e+00
5.99307296289e-03
0.00000000000e+00
0.00000000000e+00
5.70597603726e-03
0.00000000000e+00
0.00000000000e+00
5.43274929994e-03
0.00000000000e+00
0.00000000000e+00
5.17272269299e-03
0.00000000000e+00
0.00000000000e+00
4.92525845748e-03
0.00000000000e+00
0.00000000000e+00
4.68974970061e-03
0.00000000000e+00
0.00000000000e+00
4.46561881420e-03
0.00000000000e+00
0.00000000000e+00
4.25231610803e-03
0.00000000000e+00
0.00000000000e+00
4.04931847905e-03
0.00000000000e+00
0.00000000000e+00
3.85612807417e-03
0.00000000000e+00
0.00000000000e+00
3.67227108168e-03
0.00000000000e+00
0.00000000000e+00
3.49729655816e-03
0.00000000000e+00
0.00000000000e+00
3.33077539427e-03
0.00000000000e+00
0.00000000000e+00
3.17229919675e-03
0.00000000000e+00
0.00000000000e+00
3.02147929292e-03
0.00000000000e+00
0.00000000000e+00
2.87794578323e-03
0.00000000000e+00
0.00000000000e+00
2.74134665868e-03
0.00000000000e+00
0.00000000000e+00
2.61134689216e-03
0.00000000000e+00
0.00000000000e+00
2.48762768037e-03
0.00000000000e+00
0.00000000000e+00
2.36988557868e-03
0.00000000000e+00
0.00000000000e+00
2.25783180349e-03
0.00000000000e+00
0.00000000000e+00
2.15119160314e-03
0.00000000000e+00
0.00000000000e+00
2.04970335486e-03
0.00000000000e+00
0.00000000000e+00
1.95311821958e-03
0.00000000000e+00
0.00000000000e+00
1.86119929256e-03
0.00000000000e+00
0.00000000000e+00
1.77372115900e-03
0.00000000000e+00
0.00000000000e+00
1.69046925598e-03
0.00000000000e+00
0.00000000000e+00
1.61123941218e-03
0.00000000000e+00
0.00000000000e+00
1.53583731715e-03
0.00000000000e+00
0.00000000000e+00
1.46407803921e-03
0.00000000000e+00
0.00000000000e+00
1.39578559880e-03
0.00000000000e+00
0.00000000000e+00
1.33079249655e-03
0.00000000000e+00
0.00000000000e+00
1.26893933131e-03
0.00000000000e+00
0.00000000000e+00
1.21007441876e-03
0.00000000000e+00
0.00000000000e+00
1.15405339121e-03
0.00000000000e+00
0.00000000000e+00
1.10073884054e-03
0.00000000000e+00
0.00000000000e+00
1.00000000000e-03
0.00000000000e+00
0.00000000000e+00
9.50000000000e-04
0.00000000000e+00
0.00000000000e+00
9.00000000000e-04
0.00000000000e+00
0.00000000000e+00
8.50000000001e-04
0.00000000000e+00
0.00000000000e+00
8.00000000001e-04
0.00000000000e+00
0.00000000000e+00
7.50000000001e-04
0.00000000000e+00
0.00000000000e+00
7.00000000001e-04
0.00000000000e+00
0.00000000000e+00
6.50000000000e-04
0.00000000000e+00
0.00000000000e+00
6.00000000000e-04
0.00000000000e+00
0.00000000000e+00
5.50000000000e-04
0.00000000000e+00
0.00000000000e+00
4.49376177174e-04
0.00000000000e+00
0.00000000000e+00
3.81241413621e-04
0.00000000000e+00
0.00000000000e+00
2.89538615648e-04
0.00000000000e+00
0.00000000000e+00
1.66115517079e-04
0.00000000000e+00
9.98795456199e-02
4.90676744469e-03
0.00000000000e+00
9.95184726649e-02
9.80171405654e-03
0.00000000000e+00
9.89176509911e-02
1.46730474817e-02
0.00000000000e+00
9.80785280306e-02
1.95090322505e-02
0.00000000000e+00
9.70031253039e-02
2.42980180525e-02
0.00000000000e+00
9.56940335505e-02
2.90284678003e-02
0.00000000000e+00
9.41544064874e-02
3.36889854257e-02
0.00000000000e+00
9.23879532092e-02
3.82683433378e-02
0.00000000000e+00
9.03989292575e-02
4.27555094590e-02
0.00000000000e+00
8.81921263668e-02
4.71396738099e-02
0.00000000000e+00
8.57728609201e-02
5.14102745526e-02
0.00000000000e+00
8.31469611332e-02
5.55570234472e-02
0.00000000000e+00
8.03207530328e-02
5.95699306046e-02
0.00000000000e+00
7.73010452030e-02
6.34393285787e-02
0.00000000000e+00
7.40951123837e-02
6.71558956521e-02
0.00000000000e+00
7.07106779511e-02
7.07106782862e-02
0.00000000000e+00
6.71558953236e-02
7.40951126815e-02
0.00000000000e+00
6.34393282649e-02
7.73010454606e-02
0.00000000000e+00
5.95699303062e-02
8.03207532542e-02
0.00000000000e+00
5.55570231612e-02
8.31469613243e-02
0.00000000000e+00
5.14102742806e-02
8.57728610832e-02
0.00000000000e+00
4.71396735528e-02
8.81921265042e-02
0.00000000000e+00
4.27555092192e-02
9.03989293709e-02
0.00000000000e+00
3.82683431244e-02
9.23879532976e-02
0.00000000000e+00
3.36889852379e-02
9.41544065546e-02
0.00000000000e+00
2.90284676391e-02
9.56940335994e-02
0.00000000000e+00
2.42980179202e-02
9.70031253370e-02
0.00000000000e+00
1.95090321429e-02
9.80785280520e-02
0.00000000000e+00
1.46730473999e-02
9.89176510032e-02
0.00000000000e+00
9.80171400433e-03
9.95184726700e-02
0.00000000000e+00
4.90676742064e-03
9.98795456211e-02
0.00000000000e+00

</DataArray>
</Points>
<Cells>
<DataArray type="Int64" Name="connectivity" format="ascii">
0
7
7
8
8
9
9
10
10
1
1
11
11
12
12
13
13
14
14
15
15
16
16
17
17
18
18
19
19
20
20
2
2
21
21
22
22
23
23
24
24
25
25
26
26
27
27
28
28
29
29
30
30
31
31
32
32
33
33
34
34
35
35
36
36
37
37
38
38
39
39
40
40
41
41
42
42
43
43
44
44
45
45
46
46
47
47
48
48
49
49
50
50
51
51
52
52
53
53
54
54
55
55
56
56
57
57
58
58
59
59
60
60
61
61
62
62
63
63
64
64
65
65
66
66
67
67
68
68
69
69
70
70
71
71
72
72
73
73
74
74
75
75
76
76
77
77
78
78
79
79
80
80
81
81
82
82
83
83
84
84
85
85
86
86
87
87
88
88
89
89
90
90
91
91
92
92
93
93
94
94
95
95
96
96
97
97
98
98
99
99
100
100
101
101
102
102
103
103
104
104
105
105
106
106
107
107
108
108
109
109
110
110
111
111
112
112
3
4
113
113
114
114
115
115
116
116
117
117
118
118
119
119
120
120
121
121
122
122
123
123
124
124
125
125
126
126
127
127
128
128
129
129
130
130
131
131
132
132
133
133
134
134
135
135
136
136
137
137
138
138
139
139
140
140
141
141
142
142
143
143
144
144
145
145
146
146
147
147
148
148
149
149
150
150
151
151
152
152
153
153
154
154
155
155
156
156
157
157
158
158
159
159
160
160
161
161
162
162
163
163
164
164
165
165
166
166
167
167
168
168
169
169
170
170
171
171
172
172
173
173
174
174
175
175
176
176
177
177
178
178
179
179
180
180
181
181
182
182
183
183
184
184
185
185
186
186
187
187
188
188
189
189
190
190
191
191
192
192
193
193
194
194
195
195
196
196
197
197
198
198
199
199
200
200
201
201
202
202
203
203
204
204
5
5
205
205
206
206
207
207
208
208
209
209
210
210
211
211
212
212
213
213
214
214
6
6
215
215
216
216
217
217
218
218
0
3
219
219
220
220
221
221
222
222
223
223
224
224
225
225
226
226
227
227
228
228
229
229
230
230
231
231
232
232
233
233
234
234
235
235
236
236
237
237
238
238
239
239
240
240
241
241
242
242
243
243
244
244
245
245
246
246
247
247
248
248
249
249
4

</DataArray>
<DataArray type="Int64" Name="offsets" format="ascii">
2
4
6
8
10
12
14
16
18
20
22
24
26
28
30
32
34
36
38
40
42
44
46
48
50
52
54
56
58
60
62
64
66
68
70
72
74
76
78
80
82
84
86
88
90
92
94
96
98
100
102
104
106
108
110
112
114
116
118
120
122
124
126
128
130
132
134
136
138
140
142
144
146
148
150
152
154
156
158
160
162
164
166
168
170
172
174
176
178
180
182
184
186
188
190
192
194
196
198
200
202
204
206
208
210
212
214
216
218
220
222
224
226
228
230
232
234
236
238
240
242
244
246
248
250
252
254
256
258
260
262
264
266
268
270
272
274
276
278
280
282
284
286
288
290
292
294
296
298
300
302
304
306
308
310
312
314
316
318
320
322
324
326
328
330
332
334
336
338
340
342
344
346
348
350
352
354
356
358
360
362
364
366
368
370
372
374
376
378
380
382
384
386
388
390
392
394
396
398
400
402
404
406
408
410
412
414
416
418
420
422
424
426
428
430
432
434
436
438
440
442
444
446
448
450
452
454
456
458
460
462
464
466
468
470
472
474
476
478
480
482
484
486
488
490
492
494
496
498
500

</DataArray>
<DataArray type="Int64" Name="types" format="ascii">
3
3
3
3
3
3
3
3
3
3
3
3
3
3
3
3
3
3
3
3
3
3
3
3
3
3
3
3
3
3
3
3
3
3
3
3
3
3
3
3
3
3
3
3
3
3
3
3
3
3
3
3
3
3
3
3
3
3
3
3
3
3
3
3
3
3
3
3
3
3
3
3
3
3
3
3
3
3
3
3
3
3
3
3
3
3
3
3
3
3
3
3
3
3
3
3
3
3
3
3
3
3
3
3
3
3
3
3
3
3
3
3
3
3
3
3
3
3
3
3
3
3
3
3
3
3
3
3
3
3
3
3
3
3
3
3
3
3
3
3
3
3
3
3
3
3
3
3
3
3
3
3
3
3
3
3
3
3
3
3
3
3
3
3
3
3
3
3
3
3
3
3
3
3
3
3
3
3
3
3
3
3
3
3
3
3
3
3
3
3
3
3
3
3
3
3
3
3
3
3
3
3
3
3
3
3
3
3
3
3
3
3
3
3
3
3
3
3
3
3
3
3
3
3
3
3
3
3
3
3
3
3
3
3
3
3
3
3
3
3
3
3
3
3
3
3
3
3
3
3

</DataArray>
</Cells>
<PointData>
<DataArray type="UInt64" Name="bulk_node_ids" format="ascii">
0
1
2
3
4
5
6
7
8
9
10
11
12
13
14
15
16
17
18
19
20
21
22
23
24
25
26
27
28
29
30
31
32
33
34
35
36
37
38
39
40
41
42
43
44
45
46
47
48
49
50
51
52
53
54
55
56
57
58
59
60
61
62
63
64
65
66
67
68
69
70
71
72
73
74
75
76
77
78
79
80
81
82
83
84
85
86
87
88
89
90
91
92
93
94
95
96
97
98
99
100
101
102
103
104
105
106
107
108
109
110
111
112
113
114
115
116
117
118
119
120
121
122
123
124
125
126
127
128
129
130
131
132
133
134
135
136
137
138
139
140
141
142
143
144
145
146
147
148
149
150
151
152
153
154
155
156
157
158
159
160
161
162
163
164
165
166
167
168
169
170
171
172
173
174
175
176
177
178
179
180
181
182
183
184
185
186
187
188
189
190
191
192
193
194
195
196
197
198
199
200
201
202
203
204
205
206
207
208
209
210
211
212
213
214
215
216
217
218
266
267
268
269
270
271
272
273
274
275
276
277
278
279
280
281
282
283
284
285
286
287
288
289
290
291
292
293
294
295
296

</DataArray>
</PointData>
<CellData>
<DataArray type="UInt64" Name="bulk_elem_ids" format="ascii">
7
21
20
31
4
607
211
229
281
284
292
286
302
304
300
638
4371
2547
5308
2551
5612
2558
5035
2591
4945
2606
3025
2625
3053
2643
3105
2715
3209
5508
2833
3254
2831
4682
3592
2834
4199
3898
2842
3990
4010
2817
3259
2838
3245
3346
2827
3742
2812
3251
2802
2835
3253
2828
3252
2803
2845
3256
2815
3938
2804
2814
3248
2826
3786
864
2837
3258
2825
5416
2800
2824
3255
2844
801
2797
2840
3257
2809
4804
4998
2822
5637
3949
2769
3132
2720
2748
3169
2681
3058
2627
2572
5726
2570
5446
2569
2979
2559
2523
2936
2512
2961
2503
4482
4487
2514
5722
2511
3339
4247
2520
2586
5592
2540
3873
2562
2676
2584
1854
2743
2673
5151
2735
1926
2867
2753
2891
2764
1971
2906
2784
2948
2836
2002
2954
2841
2972
2818
2018
767
2819
2974
2830
2024
2965
2813
2975
2807
2026
2969
2806
2971
2843
5747
3372
2811
2967
2820
2025
5696
2808
760
2816
5292
2966
2829
2973
2810
2023
3422
2839
5058
2823
5467
2962
2821
2019
4832
2832
2001
2888
2714
3195
2642
2731
2624
2704
2605
5345
2590
2677
2557
2659
2550
2697
2546
4372
637
299
303
298
291
264
246
242
216
215
604
3
28
32
19
16
4962
3916
2371
3496
2394
5503
3469
2419
3500
2468
3513
2440
3534
2490
3559
3533
2450
3542
2494
3557
5680
2453
2376
2474
3498
2417
3463
3452
2389
3386
3945
4963

</DataArray>
</CellData>
</Piece>
</UnstructuredGrid>
</VTKFile>
