<?xml version="1.0"?>
<VTKFile type="UnstructuredGrid" version="0.1" byte_order="LittleEndian">
<!--This file was created by meshio v4.3.11-->
<UnstructuredGrid>
<Piece NumberOfPoints="18" NumberOfCells="17">
<Points>
<DataArray type="Float64" Name="Points" NumberOfComponents="3" format="ascii">
1.05000000000e-03
0.00000000000e+00
0.00000000000e+00
0.00000000000e+00
1.05000000000e-03
0.00000000000e+00
1.04552088509e-03
9.68817776626e-05
0.00000000000e+00
1.03212175458e-03
1.92936994192e-04
0.00000000000e+00
1.00991692512e-03
2.87346140323e-04
0.00000000000e+00
9.79095840502e-04
3.79303750457e-04
0.00000000000e+00
9.39921455326e-04
4.68025274765e-04
0.00000000000e+00
8.92727991639e-04
5.52753772438e-04
0.00000000000e+00
8.37918087437e-04
6.32766369796e-04
0.00000000000e+00
7.75959361491e-04
7.07380427574e-04
0.00000000000e+00
7.07380424094e-04
7.75959364663e-04
0.00000000000e+00
6.32766366618e-04
8.37918089837e-04
0.00000000000e+00
5.52753769523e-04
8.92727993444e-04
0.00000000000e+00
4.68025272180e-04
9.39921456613e-04
0.00000000000e+00
3.79303748341e-04
9.79095841322e-04
0.00000000000e+00
2.87346138647e-04
1.00991692560e-03
0.00000000000e+00
1.92936993124e-04
1.03212175478e-03
0.00000000000e+00
9.68817771331e-05
1.04552088514e-03
0.00000000000e+00

</DataArray>
</Points>
<Cells>
<DataArray type="Int64" Name="connectivity" format="ascii">
0
2
2
3
3
4
4
5
5
6
6
7
7
8
8
9
9
10
10
11
11
12
12
13
13
14
14
15
15
16
16
17
17
1

</DataArray>
<DataArray type="Int64" Name="offsets" format="ascii">
2
4
6
8
10
12
14
16
18
20
22
24
26
28
30
32
34

</DataArray>
<DataArray type="Int64" Name="types" format="ascii">
3
3
3
3
3
3
3
3
3
3
3
3
3
3
3
3
3

</DataArray>
</Cells>
<PointData>
<DataArray type="UInt64" Name="bulk_node_ids" format="ascii">
0
3
212
213
214
215
216
217
218
219
220
221
222
223
224
225
226
227

</DataArray>
</PointData>
</Piece>
</UnstructuredGrid>
</VTKFile>
