<?xml version="1.0"?>
<VTKFile type="UnstructuredGrid" version="0.1" byte_order="LittleEndian">
<!--This file was created by meshio v4.3.11-->
<UnstructuredGrid>
<Piece NumberOfPoints="1" NumberOfCells="1">
<Points>
<DataArray type="Float64" Name="Points" NumberOfComponents="3" format="ascii">
0.00000000000e+00
0.00000000000e+00
0.00000000000e+00

</DataArray>
</Points>
<Cells>
<DataArray type="Int64" Name="connectivity" format="ascii">
0

</DataArray>
<DataArray type="Int64" Name="offsets" format="ascii">
1

</DataArray>
<DataArray type="Int64" Name="types" format="ascii">
1

</DataArray>
</Cells>
<PointData>
<DataArray type="UInt64" Name="bulk_node_ids" format="ascii">
4

</DataArray>
</PointData>
<CellData>
<DataArray type="Int32" Name="gmsh:physical" format="ascii">
1

</DataArray>
</CellData>
</Piece>
</UnstructuredGrid>
</VTKFile>
