<?xml version="1.0"?>
<VTKFile type="UnstructuredGrid" version="0.1" byte_order="LittleEndian">
<!--This file was created by meshio v4.3.11-->
<UnstructuredGrid>
<Piece NumberOfPoints="33" NumberOfCells="32">
<Points>
<DataArray type="Float64" Name="Points" NumberOfComponents="3" format="ascii">
1.00000000000e-01
0.00000000000e+00
0.00000000000e+00
0.00000000000e+00
1.00000000000e-01
0.00000000000e+00
9.98795456199e-02
4.90676744469e-03
0.00000000000e+00
9.95184726649e-02
9.80171405654e-03
0.00000000000e+00
9.89176509911e-02
1.46730474817e-02
0.00000000000e+00
9.80785280306e-02
1.95090322505e-02
0.00000000000e+00
9.70031253039e-02
2.42980180525e-02
0.00000000000e+00
9.56940335505e-02
2.90284678003e-02
0.00000000000e+00
9.41544064874e-02
3.36889854257e-02
0.00000000000e+00
9.23879532092e-02
3.82683433378e-02
0.00000000000e+00
9.03989292575e-02
4.27555094590e-02
0.00000000000e+00
8.81921263668e-02
4.71396738099e-02
0.00000000000e+00
8.57728609201e-02
5.14102745526e-02
0.00000000000e+00
8.31469611332e-02
5.55570234472e-02
0.00000000000e+00
8.03207530328e-02
5.95699306046e-02
0.00000000000e+00
7.73010452030e-02
6.34393285787e-02
0.00000000000e+00
7.40951123837e-02
6.71558956521e-02
0.00000000000e+00
7.07106779511e-02
7.07106782862e-02
0.00000000000e+00
6.71558953236e-02
7.40951126815e-02
0.00000000000e+00
6.34393282649e-02
7.73010454606e-02
0.00000000000e+00
5.95699303062e-02
8.03207532542e-02
0.00000000000e+00
5.55570231612e-02
8.31469613243e-02
0.00000000000e+00
5.14102742806e-02
8.57728610832e-02
0.00000000000e+00
4.71396735528e-02
8.81921265042e-02
0.00000000000e+00
4.27555092192e-02
9.03989293709e-02
0.00000000000e+00
3.82683431244e-02
9.23879532976e-02
0.00000000000e+00
3.36889852379e-02
9.41544065546e-02
0.00000000000e+00
2.90284676391e-02
9.56940335994e-02
0.00000000000e+00
2.42980179202e-02
9.70031253370e-02
0.00000000000e+00
1.95090321429e-02
9.80785280520e-02
0.00000000000e+00
1.46730473999e-02
9.89176510032e-02
0.00000000000e+00
9.80171400433e-03
9.95184726700e-02
0.00000000000e+00
4.90676742064e-03
9.98795456211e-02
0.00000000000e+00

</DataArray>
</Points>
<Cells>
<DataArray type="Int64" Name="connectivity" format="ascii">
0
2
2
3
3
4
4
5
5
6
6
7
7
8
8
9
9
10
10
11
11
12
12
13
13
14
14
15
15
16
16
17
17
18
18
19
19
20
20
21
21
22
22
23
23
24
24
25
25
26
26
27
27
28
28
29
29
30
30
31
31
32
32
1

</DataArray>
<DataArray type="Int64" Name="offsets" format="ascii">
2
4
6
8
10
12
14
16
18
20
22
24
26
28
30
32
34
36
38
40
42
44
46
48
50
52
54
56
58
60
62
64

</DataArray>
<DataArray type="Int64" Name="types" format="ascii">
3
3
3
3
3
3
3
3
3
3
3
3
3
3
3
3
3
3
3
3
3
3
3
3
3
3
3
3
3
3
3
3

</DataArray>
</Cells>
<PointData>
<DataArray type="UInt64" Name="bulk_node_ids" format="ascii">
1
2
93
94
95
96
97
98
99
100
101
102
103
104
105
106
107
108
109
110
111
112
113
114
115
116
117
118
119
120
121
122
123

</DataArray>
</PointData>
<CellData>
<DataArray type="UInt64" Name="bulk_elem_ids" format="ascii">
3526
424
3970
1577
4179
4206
1634
3271
1659
2517
1627
2536
1687
2566
2547
1646
4109
1835
1694
1548
1640
2538
1673
2533
1638
3758
2468
1584
2431
1568
2882
3525

</DataArray>
</CellData>
</Piece>
</UnstructuredGrid>
</VTKFile>
