<?xml version="1.0"?>
<VTKFile type="UnstructuredGrid" version="0.1" byte_order="LittleEndian">
<!--This file was created by meshio v4.3.11-->
<UnstructuredGrid>
<Piece NumberOfPoints="212" NumberOfCells="212">
<Points>
<DataArray type="Float64" Name="Points" NumberOfComponents="3" format="ascii">
1.05000000000e-03
0.00000000000e+00
0.00000000000e+00
1.00000000000e-01
0.00000000000e+00
0.00000000000e+00
0.00000000000e+00
1.00000000000e-01
0.00000000000e+00
0.00000000000e+00
1.05000000000e-03
0.00000000000e+00
0.00000000000e+00
0.00000000000e+00
0.00000000000e+00
9.54545454544e-05
0.00000000000e+00
0.00000000000e+00
1.90909090909e-04
0.00000000000e+00
0.00000000000e+00
2.86363636363e-04
0.00000000000e+00
0.00000000000e+00
3.81818181817e-04
0.00000000000e+00
0.00000000000e+00
4.77272727271e-04
0.00000000000e+00
0.00000000000e+00
5.72727272726e-04
0.00000000000e+00
0.00000000000e+00
6.68181818181e-04
0.00000000000e+00
0.00000000000e+00
7.63636363636e-04
0.00000000000e+00
0.00000000000e+00
8.59090909090e-04
0.00000000000e+00
0.00000000000e+00
9.54545454545e-04
0.00000000000e+00
0.00000000000e+00
1.15251595585e-03
0.00000000000e+00
0.00000000000e+00
1.26023620791e-03
0.00000000000e+00
0.00000000000e+00
1.37342495730e-03
0.00000000000e+00
0.00000000000e+00
1.49235980691e-03
0.00000000000e+00
0.00000000000e+00
1.61733253539e-03
0.00000000000e+00
0.00000000000e+00
1.74864958462e-03
0.00000000000e+00
0.00000000000e+00
1.88663304881e-03
0.00000000000e+00
0.00000000000e+00
2.03162137147e-03
0.00000000000e+00
0.00000000000e+00
2.18397013587e-03
0.00000000000e+00
0.00000000000e+00
2.34405303039e-03
0.00000000000e+00
0.00000000000e+00
2.51226265924e-03
0.00000000000e+00
0.00000000000e+00
2.68901160239e-03
0.00000000000e+00
0.00000000000e+00
2.87473335397e-03
0.00000000000e+00
0.00000000000e+00
3.06988343837e-03
0.00000000000e+00
0.00000000000e+00
3.27494051620e-03
0.00000000000e+00
0.00000000000e+00
3.49040743192e-03
0.00000000000e+00
0.00000000000e+00
3.71681271041e-03
0.00000000000e+00
0.00000000000e+00
3.95471163806e-03
0.00000000000e+00
0.00000000000e+00
4.20468774361e-03
0.00000000000e+00
0.00000000000e+00
4.46735407330e-03
0.00000000000e+00
0.00000000000e+00
4.74335486563e-03
0.00000000000e+00
0.00000000000e+00
5.03336710310e-03
0.00000000000e+00
0.00000000000e+00
5.33810202761e-03
0.00000000000e+00
0.00000000000e+00
5.65830711331e-03
0.00000000000e+00
0.00000000000e+00
5.99476765223e-03
0.00000000000e+00
0.00000000000e+00
6.34830893542e-03
0.00000000000e+00
0.00000000000e+00
6.71979802700e-03
0.00000000000e+00
0.00000000000e+00
7.11014608044e-03
0.00000000000e+00
0.00000000000e+00
7.52031056087e-03
0.00000000000e+00
0.00000000000e+00
7.95129730566e-03
0.00000000000e+00
0.00000000000e+00
8.40416344086e-03
0.00000000000e+00
0.00000000000e+00
8.88001961987e-03
0.00000000000e+00
0.00000000000e+00
9.38003324222e-03
0.00000000000e+00
0.00000000000e+00
9.90543037755e-03
0.00000000000e+00
0.00000000000e+00
1.04574997383e-02
0.00000000000e+00
0.00000000000e+00
1.10375953849e-02
0.00000000000e+00
0.00000000000e+00
1.16471400618e-02
0.00000000000e+00
0.00000000000e+00
1.22876288147e-02
0.00000000000e+00
0.00000000000e+00
1.29606325019e-02
0.00000000000e+00
0.00000000000e+00
1.36678018208e-02
0.00000000000e+00
0.00000000000e+00
1.44108711766e-02
0.00000000000e+00
0.00000000000e+00
1.51916630393e-02
0.00000000000e+00
0.00000000000e+00
1.60120927331e-02
0.00000000000e+00
0.00000000000e+00
1.68741718597e-02
0.00000000000e+00
0.00000000000e+00
1.77800152913e-02
0.00000000000e+00
0.00000000000e+00
1.87318447195e-02
0.00000000000e+00
0.00000000000e+00
1.97319945225e-02
0.00000000000e+00
0.00000000000e+00
2.07829177568e-02
0.00000000000e+00
0.00000000000e+00
2.18871919438e-02
0.00000000000e+00
0.00000000000e+00
2.30475256597e-02
0.00000000000e+00
0.00000000000e+00
2.42667646106e-02
0.00000000000e+00
0.00000000000e+00
2.55478993524e-02
0.00000000000e+00
0.00000000000e+00
2.68940719132e-02
0.00000000000e+00
0.00000000000e+00
2.83085841474e-02
0.00000000000e+00
0.00000000000e+00
2.97949052505e-02
0.00000000000e+00
0.00000000000e+00
3.13566806340e-02
0.00000000000e+00
0.00000000000e+00
3.29977410113e-02
0.00000000000e+00
0.00000000000e+00
3.47221114282e-02
0.00000000000e+00
0.00000000000e+00
3.65340206367e-02
0.00000000000e+00
0.00000000000e+00
3.84379129761e-02
0.00000000000e+00
0.00000000000e+00
4.04384577332e-02
0.00000000000e+00
0.00000000000e+00
4.25405621150e-02
0.00000000000e+00
0.00000000000e+00
4.47493818412e-02
0.00000000000e+00
0.00000000000e+00
4.70703337997e-02
0.00000000000e+00
0.00000000000e+00
4.95091111895e-02
0.00000000000e+00
0.00000000000e+00
5.20716949894e-02
0.00000000000e+00
0.00000000000e+00
5.47643705765e-02
0.00000000000e+00
0.00000000000e+00
5.75937423421e-02
0.00000000000e+00
0.00000000000e+00
6.05667494419e-02
0.00000000000e+00
0.00000000000e+00
6.36906834689e-02
0.00000000000e+00
0.00000000000e+00
6.69732073528e-02
0.00000000000e+00
0.00000000000e+00
7.04223712858e-02
0.00000000000e+00
0.00000000000e+00
7.40466344191e-02
0.00000000000e+00
0.00000000000e+00
7.78548863662e-02
0.00000000000e+00
0.00000000000e+00
8.18564668927e-02
0.00000000000e+00
0.00000000000e+00
8.60611916073e-02
0.00000000000e+00
0.00000000000e+00
9.04793731482e-02
0.00000000000e+00
0.00000000000e+00
9.51218470555e-02
0.00000000000e+00
0.00000000000e+00
9.98795456199e-02
4.90676744469e-03
0.00000000000e+00
9.95184726649e-02
9.80171405654e-03
0.00000000000e+00
9.89176509911e-02
1.46730474817e-02
0.00000000000e+00
9.80785280306e-02
1.95090322505e-02
0.00000000000e+00
9.70031253039e-02
2.42980180525e-02
0.00000000000e+00
9.56940335505e-02
2.90284678003e-02
0.00000000000e+00
9.41544064874e-02
3.36889854257e-02
0.00000000000e+00
9.23879532092e-02
3.82683433378e-02
0.00000000000e+00
9.03989292575e-02
4.27555094590e-02
0.00000000000e+00
8.81921263668e-02
4.71396738099e-02
0.00000000000e+00
8.57728609201e-02
5.14102745526e-02
0.00000000000e+00
8.31469611332e-02
5.55570234472e-02
0.00000000000e+00
8.03207530328e-02
5.95699306046e-02
0.00000000000e+00
7.73010452030e-02
6.34393285787e-02
0.00000000000e+00
7.40951123837e-02
6.71558956521e-02
0.00000000000e+00
7.07106779511e-02
7.07106782862e-02
0.00000000000e+00
6.71558953236e-02
7.40951126815e-02
0.00000000000e+00
6.34393282649e-02
7.73010454606e-02
0.00000000000e+00
5.95699303062e-02
8.03207532542e-02
0.00000000000e+00
5.55570231612e-02
8.31469613243e-02
0.00000000000e+00
5.14102742806e-02
8.57728610832e-02
0.00000000000e+00
4.71396735528e-02
8.81921265042e-02
0.00000000000e+00
4.27555092192e-02
9.03989293709e-02
0.00000000000e+00
3.82683431244e-02
9.23879532976e-02
0.00000000000e+00
3.36889852379e-02
9.41544065546e-02
0.00000000000e+00
2.90284676391e-02
9.56940335994e-02
0.00000000000e+00
2.42980179202e-02
9.70031253370e-02
0.00000000000e+00
1.95090321429e-02
9.80785280520e-02
0.00000000000e+00
1.46730473999e-02
9.89176510032e-02
0.00000000000e+00
9.80171400433e-03
9.95184726700e-02
0.00000000000e+00
4.90676742064e-03
9.98795456211e-02
0.00000000000e+00
0.00000000000e+00
9.51218470555e-02
0.00000000000e+00
0.00000000000e+00
9.04793731483e-02
0.00000000000e+00
0.00000000000e+00
8.60611916074e-02
0.00000000000e+00
0.00000000000e+00
8.18564668928e-02
0.00000000000e+00
0.00000000000e+00
7.78548863663e-02
0.00000000000e+00
0.00000000000e+00
7.40466344192e-02
0.00000000000e+00
0.00000000000e+00
7.04223712860e-02
0.00000000000e+00
0.00000000000e+00
6.69732073530e-02
0.00000000000e+00
0.00000000000e+00
6.36906834692e-02
0.00000000000e+00
0.00000000000e+00
6.05667494422e-02
0.00000000000e+00
0.00000000000e+00
5.75937423423e-02
0.00000000000e+00
0.00000000000e+00
5.47643705768e-02
0.00000000000e+00
0.00000000000e+00
5.20716949897e-02
0.00000000000e+00
0.00000000000e+00
4.95091111898e-02
0.00000000000e+00
0.00000000000e+00
4.70703338000e-02
0.00000000000e+00
0.00000000000e+00
4.47493818415e-02
0.00000000000e+00
0.00000000000e+00
4.25405621153e-02
0.00000000000e+00
0.00000000000e+00
4.04384577335e-02
0.00000000000e+00
0.00000000000e+00
3.84379129763e-02
0.00000000000e+00
0.00000000000e+00
3.65340206369e-02
0.00000000000e+00
0.00000000000e+00
3.47221114284e-02
0.00000000000e+00
0.00000000000e+00
3.29977410115e-02
0.00000000000e+00
0.00000000000e+00
3.13566806342e-02
0.00000000000e+00
0.00000000000e+00
2.97949052507e-02
0.00000000000e+00
0.00000000000e+00
2.83085841475e-02
0.00000000000e+00
0.00000000000e+00
2.68940719134e-02
0.00000000000e+00
0.00000000000e+00
2.55478993525e-02
0.00000000000e+00
0.00000000000e+00
2.42667646107e-02
0.00000000000e+00
0.00000000000e+00
2.30475256597e-02
0.00000000000e+00
0.00000000000e+00
2.18871919439e-02
0.00000000000e+00
0.00000000000e+00
2.07829177569e-02
0.00000000000e+00
0.00000000000e+00
1.97319945226e-02
0.00000000000e+00
0.00000000000e+00
1.87318447196e-02
0.00000000000e+00
0.00000000000e+00
1.77800152914e-02
0.00000000000e+00
0.00000000000e+00
1.68741718597e-02
0.00000000000e+00
0.00000000000e+00
1.60120927332e-02
0.00000000000e+00
0.00000000000e+00
1.51916630393e-02
0.00000000000e+00
0.00000000000e+00
1.44108711766e-02
0.00000000000e+00
0.00000000000e+00
1.36678018209e-02
0.00000000000e+00
0.00000000000e+00
1.29606325020e-02
0.00000000000e+00
0.00000000000e+00
1.22876288148e-02
0.00000000000e+00
0.00000000000e+00
1.16471400618e-02
0.00000000000e+00
0.00000000000e+00
1.10375953849e-02
0.00000000000e+00
0.00000000000e+00
1.04574997383e-02
0.00000000000e+00
0.00000000000e+00
9.90543037757e-03
0.00000000000e+00
0.00000000000e+00
9.38003324224e-03
0.00000000000e+00
0.00000000000e+00
8.88001961989e-03
0.00000000000e+00
0.00000000000e+00
8.40416344088e-03
0.00000000000e+00
0.00000000000e+00
7.95129730568e-03
0.00000000000e+00
0.00000000000e+00
7.52031056088e-03
0.00000000000e+00
0.00000000000e+00
7.11014608046e-03
0.00000000000e+00
0.00000000000e+00
6.71979802702e-03
0.00000000000e+00
0.00000000000e+00
6.34830893544e-03
0.00000000000e+00
0.00000000000e+00
5.99476765224e-03
0.00000000000e+00
0.00000000000e+00
5.65830711332e-03
0.00000000000e+00
0.00000000000e+00
5.33810202762e-03
0.00000000000e+00
0.00000000000e+00
5.03336710311e-03
0.00000000000e+00
0.00000000000e+00
4.74335486564e-03
0.00000000000e+00
0.00000000000e+00
4.46735407330e-03
0.00000000000e+00
0.00000000000e+00
4.20468774362e-03
0.00000000000e+00
0.00000000000e+00
3.95471163807e-03
0.00000000000e+00
0.00000000000e+00
3.71681271041e-03
0.00000000000e+00
0.00000000000e+00
3.49040743192e-03
0.00000000000e+00
0.00000000000e+00
3.27494051620e-03
0.00000000000e+00
0.00000000000e+00
3.06988343837e-03
0.00000000000e+00
0.00000000000e+00
2.87473335398e-03
0.00000000000e+00
0.00000000000e+00
2.68901160240e-03
0.00000000000e+00
0.00000000000e+00
2.51226265924e-03
0.00000000000e+00
0.00000000000e+00
2.34405303039e-03
0.00000000000e+00
0.00000000000e+00
2.18397013587e-03
0.00000000000e+00
0.00000000000e+00
2.03162137147e-03
0.00000000000e+00
0.00000000000e+00
1.88663304881e-03
0.00000000000e+00
0.00000000000e+00
1.74864958462e-03
0.00000000000e+00
0.00000000000e+00
1.61733253539e-03
0.00000000000e+00
0.00000000000e+00
1.49235980691e-03
0.00000000000e+00
0.00000000000e+00
1.37342495730e-03
0.00000000000e+00
0.00000000000e+00
1.26023620791e-03
0.00000000000e+00
0.00000000000e+00
1.15251595585e-03
0.00000000000e+00
0.00000000000e+00
9.54545454546e-04
0.00000000000e+00
0.00000000000e+00
8.59090909091e-04
0.00000000000e+00
0.00000000000e+00
7.63636363637e-04
0.00000000000e+00
0.00000000000e+00
6.68181818183e-04
0.00000000000e+00
0.00000000000e+00
5.72727272729e-04
0.00000000000e+00
0.00000000000e+00
4.77272727274e-04
0.00000000000e+00
0.00000000000e+00
3.81818181819e-04
0.00000000000e+00
0.00000000000e+00
2.86363636364e-04
0.00000000000e+00
0.00000000000e+00
1.90909090910e-04
0.00000000000e+00
0.00000000000e+00
9.54545454549e-05
0.00000000000e+00

</DataArray>
</Points>
<Cells>
<DataArray type="Int64" Name="connectivity" format="ascii">
4
5
5
6
6
7
7
8
8
9
9
10
10
11
11
12
12
13
13
14
14
0
0
15
15
16
16
17
17
18
18
19
19
20
20
21
21
22
22
23
23
24
24
25
25
26
26
27
27
28
28
29
29
30
30
31
31
32
32
33
33
34
34
35
35
36
36
37
37
38
38
39
39
40
40
41
41
42
42
43
43
44
44
45
45
46
46
47
47
48
48
49
49
50
50
51
51
52
52
53
53
54
54
55
55
56
56
57
57
58
58
59
59
60
60
61
61
62
62
63
63
64
64
65
65
66
66
67
67
68
68
69
69
70
70
71
71
72
72
73
73
74
74
75
75
76
76
77
77
78
78
79
79
80
80
81
81
82
82
83
83
84
84
85
85
86
86
87
87
88
88
89
89
90
90
91
91
92
92
1
1
93
93
94
94
95
95
96
96
97
97
98
98
99
99
100
100
101
101
102
102
103
103
104
104
105
105
106
106
107
107
108
108
109
109
110
110
111
111
112
112
113
113
114
114
115
115
116
116
117
117
118
118
119
119
120
120
121
121
122
122
123
123
2
2
124
124
125
125
126
126
127
127
128
128
129
129
130
130
131
131
132
132
133
133
134
134
135
135
136
136
137
137
138
138
139
139
140
140
141
141
142
142
143
143
144
144
145
145
146
146
147
147
148
148
149
149
150
150
151
151
152
152
153
153
154
154
155
155
156
156
157
157
158
158
159
159
160
160
161
161
162
162
163
163
164
164
165
165
166
166
167
167
168
168
169
169
170
170
171
171
172
172
173
173
174
174
175
175
176
176
177
177
178
178
179
179
180
180
181
181
182
182
183
183
184
184
185
185
186
186
187
187
188
188
189
189
190
190
191
191
192
192
193
193
194
194
195
195
196
196
197
197
198
198
199
199
200
200
201
201
3
3
202
202
203
203
204
204
205
205
206
206
207
207
208
208
209
209
210
210
211
211
4

</DataArray>
<DataArray type="Int64" Name="offsets" format="ascii">
2
4
6
8
10
12
14
16
18
20
22
24
26
28
30
32
34
36
38
40
42
44
46
48
50
52
54
56
58
60
62
64
66
68
70
72
74
76
78
80
82
84
86
88
90
92
94
96
98
100
102
104
106
108
110
112
114
116
118
120
122
124
126
128
130
132
134
136
138
140
142
144
146
148
150
152
154
156
158
160
162
164
166
168
170
172
174
176
178
180
182
184
186
188
190
192
194
196
198
200
202
204
206
208
210
212
214
216
218
220
222
224
226
228
230
232
234
236
238
240
242
244
246
248
250
252
254
256
258
260
262
264
266
268
270
272
274
276
278
280
282
284
286
288
290
292
294
296
298
300
302
304
306
308
310
312
314
316
318
320
322
324
326
328
330
332
334
336
338
340
342
344
346
348
350
352
354
356
358
360
362
364
366
368
370
372
374
376
378
380
382
384
386
388
390
392
394
396
398
400
402
404
406
408
410
412
414
416
418
420
422
424

</DataArray>
<DataArray type="Int64" Name="types" format="ascii">
3
3
3
3
3
3
3
3
3
3
3
3
3
3
3
3
3
3
3
3
3
3
3
3
3
3
3
3
3
3
3
3
3
3
3
3
3
3
3
3
3
3
3
3
3
3
3
3
3
3
3
3
3
3
3
3
3
3
3
3
3
3
3
3
3
3
3
3
3
3
3
3
3
3
3
3
3
3
3
3
3
3
3
3
3
3
3
3
3
3
3
3
3
3
3
3
3
3
3
3
3
3
3
3
3
3
3
3
3
3
3
3
3
3
3
3
3
3
3
3
3
3
3
3
3
3
3
3
3
3
3
3
3
3
3
3
3
3
3
3
3
3
3
3
3
3
3
3
3
3
3
3
3
3
3
3
3
3
3
3
3
3
3
3
3
3
3
3
3
3
3
3
3
3
3
3
3
3
3
3
3
3
3
3
3
3
3
3
3
3
3
3
3
3
3
3
3
3
3
3
3
3
3
3
3
3
3
3
3
3
3
3

</DataArray>
</Cells>
<PointData>
<DataArray type="UInt64" Name="bulk_node_ids" format="ascii">
0
1
2
3
4
5
6
7
8
9
10
11
12
13
14
15
16
17
18
19
20
21
22
23
24
25
26
27
28
29
30
31
32
33
34
35
36
37
38
39
40
41
42
43
44
45
46
47
48
49
50
51
52
53
54
55
56
57
58
59
60
61
62
63
64
65
66
67
68
69
70
71
72
73
74
75
76
77
78
79
80
81
82
83
84
85
86
87
88
89
90
91
92
93
94
95
96
97
98
99
100
101
102
103
104
105
106
107
108
109
110
111
112
113
114
115
116
117
118
119
120
121
122
123
124
125
126
127
128
129
130
131
132
133
134
135
136
137
138
139
140
141
142
143
144
145
146
147
148
149
150
151
152
153
154
155
156
157
158
159
160
161
162
163
164
165
166
167
168
169
170
171
172
173
174
175
176
177
178
179
180
181
182
183
184
185
186
187
188
189
190
191
192
193
194
195
196
197
198
199
200
201
202
203
204
205
206
207
208
209
210
211

</DataArray>
</PointData>
<CellData>
<DataArray type="UInt64" Name="bulk_elem_ids" format="ascii">
177
151
71
76
81
87
96
102
103
201
213
2850
1670
1731
2217
1794
3786
4099
1872
447
1936
2296
2023
381
1736
2014
2318
2034
3111
2020
2315
1999
2019
2890
2221
2028
3334
2000
2018
2309
3826
2026
2308
3762
2029
2306
3925
2024
3038
4036
2010
2307
1989
2008
231
1987
2007
2641
1978
2005
2316
2001
2313
1998
2312
1995
2293
1965
1993
2260
1923
2212
1866
1838
2500
1808
2176
1774
2137
1764
2125
1752
2123
1754
1711
1889
1692
2068
1677
3158
3526
424
3970
1577
4179
4206
1634
3271
1659
2517
1627
2536
1687
2566
2547
1646
4109
1835
1694
1548
1640
2538
1673
2533
1638
3758
2468
1584
2431
1568
2882
3525
3157
1675
1802
1691
1032
1092
1709
1746
4091
1735
1854
1757
1865
1773
3885
1947
1880
2216
1945
1170
2060
1961
2794
3322
1992
1208
2095
1994
3418
2097
2004
2088
2099
2006
1980
2104
2009
1226
2105
2011
3575
2012
4032
2015
2117
2032
1996
4088
2027
2119
2013
2118
2021
2311
2030
2114
2033
2116
2031
2113
2016
2121
2025
1228
4120
2017
2120
2022
2071
1935
289
1871
4074
3553
1793
1864
1730
1669
2851
182
122
112
98
142
134
80
75
70
69
176

</DataArray>
</CellData>
</Piece>
</UnstructuredGrid>
</VTKFile>
